--------------------------------------------------------------------------
[[15896,1],1]: A high-performance Open MPI point-to-point messaging module
was unable to find any relevant network interfaces:

Module: OpenFabrics (openib)
  Host: qmobile

Another transport will be used instead, although this may result in
lower performance.

NOTE: You can disable this warning by setting the MCA parameter
btl_base_warn_component_unused to 0.
--------------------------------------------------------------------------

     Program PWSCF v.7.2 starts on 10Aug2023 at 10:36:37 

     This program is part of the open-source Quantum ESPRESSO suite
     for quantum simulation of materials; please cite
         "P. Giannozzi et al., J. Phys.:Condens. Matter 21 395502 (2009);
         "P. Giannozzi et al., J. Phys.:Condens. Matter 29 465901 (2017);
         "P. Giannozzi et al., J. Chem. Phys. 152 154105 (2020);
          URL http://www.quantum-espresso.org", 
     in publications or presentations arising from this work. More details at
     http://www.quantum-espresso.org/quote

     Parallel version (MPI), running on     2 processors

     MPI processes distributed on     1 nodes
     188 MiB available memory on the printing compute node when the environment starts

     Reading input from AlAs.scf.in
     Message from routine read_cards :
     DEPRECATED: no units specified in ATOMIC_POSITIONS card
     Message from routine read_cards :
     ATOMIC_POSITIONS: units set to alat

     Current dimensions of program PWSCF are:
     Max number of different atomic species (ntypx) = 10
     Max number of k-points (npk) =  40000
     Max angular momentum in pseudopotentials (lmaxx) =  4

     R & G space division:  proc/nbgrp/npool/nimage =       2
     Subspace diagonalization in iterative solution of the eigenvalue problem:
     a serial algorithm will be used


     Parallelization info
     --------------------
     sticks:   dense  smooth     PW     G-vecs:    dense   smooth      PW
     Min         120     120     42                 1221     1221     264
     Max         121     121     43                 1224     1224     267
     Sum         241     241     85                 2445     2445     531

     Using Slab Decomposition



     bravais-lattice index     =            2
     lattice parameter (alat)  =      10.5000  a.u.
     unit-cell volume          =     289.4062 (a.u.)^3
     number of atoms/cell      =            2
     number of atomic types    =            2
     number of electrons       =         8.00
     number of Kohn-Sham states=            4
     kinetic-energy cutoff     =      16.0000  Ry
     charge density cutoff     =      64.0000  Ry
     scf convergence threshold =      1.0E-08
     mixing beta               =       0.7000
     number of iterations used =            8  plain     mixing
     Exchange-correlation= SLA  PZ   NOGX NOGC
                           (   1   1   0   0   0   0   0)

     celldm(1)=  10.500000  celldm(2)=   0.000000  celldm(3)=   0.000000
     celldm(4)=   0.000000  celldm(5)=   0.000000  celldm(6)=   0.000000

     crystal axes: (cart. coord. in units of alat)
               a(1) = (  -0.500000   0.000000   0.500000 )  
               a(2) = (   0.000000   0.500000   0.500000 )  
               a(3) = (  -0.500000   0.500000   0.000000 )  

     reciprocal axes: (cart. coord. in units 2 pi/alat)
               b(1) = ( -1.000000 -1.000000  1.000000 )  
               b(2) = (  1.000000  1.000000  1.000000 )  
               b(3) = ( -1.000000  1.000000 -1.000000 )  


     PseudoPot. # 1 for Al read from file:
     ../../../files/pseudo/Al.pz-vbc.UPF
     MD5 check sum: f06ceae8da0fe5c02c98e3688433298c
     Pseudo is Norm-conserving, Zval =  3.0
     Generated by new atomic code, or converted to UPF format
     Using radial grid of  171 points,  2 beta functions with: 
                l(1) =   0
                l(2) =   1

     PseudoPot. # 2 for As read from file:
     ../../../files/pseudo/As.pz-bhs.UPF
     MD5 check sum: 2c53d8691f3db84e0fbdf898b12bc293
     Pseudo is Norm-conserving, Zval =  5.0
     Generated by new atomic code, or converted to UPF format
     Using radial grid of  525 points,  2 beta functions with: 
                l(1) =   0
                l(2) =   1

     atomic species   valence    mass     pseudopotential
        Al             3.00    26.98000     Al( 1.00)
        As             5.00    74.92000     As( 1.00)

     24 Sym. Ops. (no inversion) found



   Cartesian axes

     site n.     atom                  positions (alat units)
         1           Al  tau(   1) = (   0.0000000   0.0000000   0.0000000  )
         2           As  tau(   2) = (   0.2500000   0.2500000   0.2500000  )

     number of k points=    16
                       cart. coord. in units 2pi/alat
        k(    1) = (   0.0000000   0.0000000   0.0000000), wk =   0.0092593
        k(    2) = (  -0.1666667   0.1666667  -0.1666667), wk =   0.0740741
        k(    3) = (  -0.3333333   0.3333333  -0.3333333), wk =   0.0740741
        k(    4) = (   0.5000000  -0.5000000   0.5000000), wk =   0.0370370
        k(    5) = (   0.0000000   0.3333333   0.0000000), wk =   0.0555556
        k(    6) = (  -0.1666667   0.5000000  -0.1666667), wk =   0.2222222
        k(    7) = (   0.6666667  -0.3333333   0.6666667), wk =   0.2222222
        k(    8) = (   0.5000000  -0.1666667   0.5000000), wk =   0.2222222
        k(    9) = (   0.3333333   0.0000000   0.3333333), wk =   0.1111111
        k(   10) = (   0.0000000   0.6666667   0.0000000), wk =   0.0555556
        k(   11) = (   0.8333333  -0.1666667   0.8333333), wk =   0.2222222
        k(   12) = (   0.6666667  -0.0000000   0.6666667), wk =   0.1111111
        k(   13) = (   0.0000000  -1.0000000   0.0000000), wk =   0.0277778
        k(   14) = (   0.6666667  -0.3333333   1.0000000), wk =   0.2222222
        k(   15) = (   0.5000000  -0.1666667   0.8333333), wk =   0.2222222
        k(   16) = (  -0.3333333  -1.0000000   0.0000000), wk =   0.1111111

     Dense  grid:     2445 G-vectors     FFT dimensions: (  20,  20,  20)

     Estimated max dynamical RAM per process >       1.15 MB

     Estimated total dynamical RAM >       2.31 MB

     Initial potential from superposition of free atoms

     starting charge       7.9977, renormalised to       8.0000
     Starting wfcs are    8 randomized atomic wfcs

     total cpu time spent up to now is        0.4 secs

     Self-consistent Calculation

     iteration #  1     ecut=    16.00 Ry     beta= 0.70
     Davidson diagonalization with overlap
     ethr =  1.00E-02,  avg # of iterations =  2.0

     Threshold (ethr) on eigenvalues was too large:
     Diagonalizing with lowered threshold

     Davidson diagonalization with overlap
     ethr =  8.25E-04,  avg # of iterations =  2.0

     total cpu time spent up to now is        0.5 secs

     total energy              =     -16.98508197 Ry
     estimated scf accuracy    <       0.06793765 Ry

     iteration #  2     ecut=    16.00 Ry     beta= 0.70
     Davidson diagonalization with overlap
     ethr =  8.49E-04,  avg # of iterations =  2.0

     total cpu time spent up to now is        0.5 secs

     total energy              =     -16.99586747 Ry
     estimated scf accuracy    <       0.00413214 Ry

     iteration #  3     ecut=    16.00 Ry     beta= 0.70
     Davidson diagonalization with overlap
     ethr =  5.17E-05,  avg # of iterations =  2.2

     total cpu time spent up to now is        0.5 secs

     total energy              =     -16.99647911 Ry
     estimated scf accuracy    <       0.00034662 Ry

     iteration #  4     ecut=    16.00 Ry     beta= 0.70
     Davidson diagonalization with overlap
     ethr =  4.33E-06,  avg # of iterations =  3.4

     total cpu time spent up to now is        0.6 secs

     total energy              =     -16.99663520 Ry
     estimated scf accuracy    <       0.00006188 Ry

     iteration #  5     ecut=    16.00 Ry     beta= 0.70
     Davidson diagonalization with overlap
     ethr =  7.73E-07,  avg # of iterations =  3.3

     total cpu time spent up to now is        0.6 secs

     total energy              =     -16.99665592 Ry
     estimated scf accuracy    <       0.00003813 Ry

     iteration #  6     ecut=    16.00 Ry     beta= 0.70
     Davidson diagonalization with overlap
     ethr =  4.77E-07,  avg # of iterations =  2.0

     total cpu time spent up to now is        0.7 secs

     total energy              =     -16.99666193 Ry
     estimated scf accuracy    <       0.00000019 Ry

     iteration #  7     ecut=    16.00 Ry     beta= 0.70
     Davidson diagonalization with overlap
     ethr =  2.37E-09,  avg # of iterations =  6.1

     total cpu time spent up to now is        0.7 secs

     total energy              =     -16.99666255 Ry
     estimated scf accuracy    <       0.00000014 Ry

     iteration #  8     ecut=    16.00 Ry     beta= 0.70
     Davidson diagonalization with overlap
     ethr =  1.79E-09,  avg # of iterations =  2.0

     total cpu time spent up to now is        0.8 secs

     End of self-consistent calculation

          k = 0.0000 0.0000 0.0000 (   331 PWs)   bands (ev):

    -7.0110   5.1425   5.1425   5.1425

          k =-0.1667 0.1667-0.1667 (   311 PWs)   bands (ev):

    -6.7206   3.0338   4.8837   4.8837

          k =-0.3333 0.3333-0.3333 (   308 PWs)   bands (ev):

    -5.9876   0.5051   4.4816   4.4816

          k = 0.5000-0.5000 0.5000 (   302 PWs)   bands (ev):

    -5.4599  -0.6562   4.3183   4.3183

          k = 0.0000 0.3333 0.0000 (   307 PWs)   bands (ev):

    -6.6229   3.1744   4.3372   4.3372

          k =-0.1667 0.5000-0.1667 (   313 PWs)   bands (ev):

    -6.0300   1.2183   3.6779   3.8801

          k = 0.6667-0.3333 0.6667 (   315 PWs)   bands (ev):

    -5.3551  -0.3171   2.9628   3.8503

          k = 0.5000-0.1667 0.5000 (   314 PWs)   bands (ev):

    -5.5420   0.0646   2.7357   4.2565

          k = 0.3333 0.0000 0.3333 (   317 PWs)   bands (ev):

    -6.2806   1.7863   3.3860   4.8140

          k = 0.0000 0.6667 0.0000 (   315 PWs)   bands (ev):

    -5.6286   0.7713   3.2938   3.2938

          k = 0.8333-0.1667 0.8333 (   311 PWs)   bands (ev):

    -5.0628  -0.0882   2.2121   3.1715

          k = 0.6667-0.0000 0.6667 (   309 PWs)   bands (ev):

    -5.0163  -0.0476   1.4162   3.5705

          k = 0.0000-1.0000 0.0000 (   302 PWs)   bands (ev):

    -4.8631  -0.4642   2.9031   2.9031

          k = 0.6667-0.3333 1.0000 (   318 PWs)   bands (ev):

    -5.4225   0.3892   2.2895   3.4321

          k = 0.5000-0.1667 0.8333 (   312 PWs)   bands (ev):

    -5.0173  -0.1343   1.8094   3.0248

          k =-0.3333-1.0000 0.0000 (   308 PWs)   bands (ev):

    -4.8370  -0.1944   2.0487   2.3236

     highest occupied level (ev):     5.1425

!    total energy              =     -16.99666258 Ry
     estimated scf accuracy    <          4.4E-10 Ry

     The total energy is the sum of the following terms:
     one-electron contribution =       3.42639252 Ry
     hartree contribution      =       1.54422970 Ry
     xc contribution           =      -4.82981888 Ry
     ewald contribution        =     -17.13746592 Ry

     convergence has been achieved in   8 iterations

     Writing all to output data dir ./tmp/AlAs.save/

     init_run     :      0.16s CPU      0.25s WALL (       1 calls)
     electrons    :      0.33s CPU      0.37s WALL (       1 calls)

     Called by init_run:
     wfcinit      :      0.04s CPU      0.05s WALL (       1 calls)
     potinit      :      0.00s CPU      0.00s WALL (       1 calls)
     hinit0       :      0.12s CPU      0.17s WALL (       1 calls)

     Called by electrons:
     c_bands      :      0.28s CPU      0.30s WALL (       9 calls)
     sum_band     :      0.04s CPU      0.04s WALL (       9 calls)
     v_of_rho     :      0.01s CPU      0.01s WALL (       9 calls)
     mix_rho      :      0.01s CPU      0.01s WALL (       9 calls)

     Called by c_bands:
     init_us_2    :      0.02s CPU      0.02s WALL (     304 calls)
     init_us_2:cp :      0.01s CPU      0.02s WALL (     304 calls)
     cegterg      :      0.27s CPU      0.28s WALL (     144 calls)

     Called by *egterg:
     cdiaghg      :      0.02s CPU      0.03s WALL (     528 calls)
     h_psi        :      0.24s CPU      0.25s WALL (     560 calls)
     g_psi        :      0.00s CPU      0.00s WALL (     400 calls)

     Called by h_psi:
     h_psi:calbec :      0.02s CPU      0.02s WALL (     560 calls)
     vloc_psi     :      0.21s CPU      0.22s WALL (     560 calls)
     add_vuspsi   :      0.01s CPU      0.01s WALL (     560 calls)

     General routines
     calbec       :      0.02s CPU      0.02s WALL (     560 calls)
     fft          :      0.09s CPU      0.13s WALL (      27 calls)
     ffts         :      0.00s CPU      0.00s WALL (       9 calls)
     fftw         :      0.20s CPU      0.21s WALL (    4488 calls)

     Parallel routines

     PWSCF        :      0.56s CPU      0.79s WALL


   This run was terminated on:  10:36:38  10Aug2023            

=------------------------------------------------------------------------------=
   JOB DONE.
=------------------------------------------------------------------------------=
