--------------------------------------------------------------------------
[[14892,1],0]: A high-performance Open MPI point-to-point messaging module
was unable to find any relevant network interfaces:

Module: OpenFabrics (openib)
  Host: qmobile

Another transport will be used instead, although this may result in
lower performance.

NOTE: You can disable this warning by setting the MCA parameter
btl_base_warn_component_unused to 0.
--------------------------------------------------------------------------

     Program MATDYN v.7.2 starts on 10Aug2023 at 11:49:23 

     This program is part of the open-source Quantum ESPRESSO suite
     for quantum simulation of materials; please cite
         "P. Giannozzi et al., J. Phys.:Condens. Matter 21 395502 (2009);
         "P. Giannozzi et al., J. Phys.:Condens. Matter 29 465901 (2017);
         "P. Giannozzi et al., J. Chem. Phys. 152 154105 (2020);
          URL http://www.quantum-espresso.org", 
     in publications or presentations arising from this work. More details at
     http://www.quantum-espresso.org/quote

     Parallel version (MPI), running on     1 processors

     MPI processes distributed on     1 nodes
     292 MiB available memory on the printing compute node when the environment starts

 mass for atomic type   1 not given; uses mass from file AlAs444.fc                                                                                                                                                                                                                                                      
 mass for atomic type   2 not given; uses mass from file AlAs444.fc                                                                                                                                                                                                                                                      

     MATDYN       :      0.04s CPU      0.05s WALL


   This run was terminated on:  11:49:23  10Aug2023            

=------------------------------------------------------------------------------=
   JOB DONE.
=------------------------------------------------------------------------------=
