
     Program PROJWFC v.7.2 starts on 17Aug2023 at 16:53:47 

     This program is part of the open-source Quantum ESPRESSO suite
     for quantum simulation of materials; please cite
         "P. Giannozzi et al., J. Phys.:Condens. Matter 21 395502 (2009);
         "P. Giannozzi et al., J. Phys.:Condens. Matter 29 465901 (2017);
         "P. Giannozzi et al., J. Chem. Phys. 152 154105 (2020);
          URL http://www.quantum-espresso.org", 
     in publications or presentations arising from this work. More details at
     http://www.quantum-espresso.org/quote

     Parallel version (MPI), running on     1 processors

     MPI processes distributed on     1 nodes
     5258 MiB available memory on the printing compute node when the environment starts


     Reading xml data from directory:

     ./out/si.save/

     IMPORTANT: XC functional enforced from input :
     Exchange-correlation= PBE
                           (   1   4   3   4   0   0   0)
     Any further DFT definition will be discarded
     Please, verify this is what you really want


     G-vector sticks info
     --------------------
     sticks:   dense  smooth     PW     G-vecs:    dense   smooth      PW
     Sum         583     583    169                 9257     9257    1471

     Using Slab Decomposition


     Gaussian broadening (read from input): ngauss,degauss=   0    0.073480


     Calling projwave .... 
     Subspace diagonalization in iterative solution of the eigenvalue problem:
     a serial algorithm will be used


  Problem Sizes 
  natomwfc =            8
  nbnd     =           12
  nkstot   =           81
  npwx     =         1185
  nkb      =           36


     Atomic states used for projection
     (read from pseudopotential files):

     state #   1: atom   1 (Si ), wfc  1 (l=0 m= 1)
     state #   2: atom   1 (Si ), wfc  2 (l=1 m= 1)
     state #   3: atom   1 (Si ), wfc  2 (l=1 m= 2)
     state #   4: atom   1 (Si ), wfc  2 (l=1 m= 3)
     state #   5: atom   2 (Si ), wfc  1 (l=0 m= 1)
     state #   6: atom   2 (Si ), wfc  2 (l=1 m= 1)
     state #   7: atom   2 (Si ), wfc  2 (l=1 m= 2)
     state #   8: atom   2 (Si ), wfc  2 (l=1 m= 3)

 k =  -0.5000000000  0.5000000000  0.5000000000
==== e(   1) =    -3.40376 eV ==== 
     psi = 0.383*[#   1]+0.383*[#   5]+0.038*[#   2]+0.038*[#   3]+0.038*[#   4]
          +0.038*[#   6]+0.038*[#   7]+0.038*[#   8]
    |psi|^2 = 0.997
==== e(   2) =    -0.74278 eV ==== 
     psi = 0.126*[#   2]+0.126*[#   3]+0.126*[#   4]+0.126*[#   6]+0.126*[#   7]
          +0.126*[#   8]+0.116*[#   1]+0.116*[#   5]
    |psi|^2 = 0.986
==== e(   3) =     5.02979 eV ==== 
     psi = 0.247*[#   3]+0.247*[#   7]+0.186*[#   4]+0.186*[#   8]+0.060*[#   2]
          +0.060*[#   6]
    |psi|^2 = 0.988
==== e(   4) =     5.02979 eV ==== 
     psi = 0.269*[#   2]+0.269*[#   6]+0.143*[#   4]+0.143*[#   8]+0.082*[#   3]
          +0.082*[#   7]
    |psi|^2 = 0.988
==== e(   5) =     7.75914 eV ==== 
     psi = 0.343*[#   1]+0.343*[#   5]+0.039*[#   2]+0.039*[#   3]+0.039*[#   4]
          +0.039*[#   6]+0.039*[#   7]+0.039*[#   8]
    |psi|^2 = 0.921
==== e(   6) =     9.56853 eV ==== 
     psi = 0.215*[#   2]+0.215*[#   6]+0.165*[#   3]+0.165*[#   7]+0.005*[#   4]
          +0.005*[#   8]
    |psi|^2 = 0.768
==== e(   7) =     9.56853 eV ==== 
     psi = 0.251*[#   4]+0.251*[#   8]+0.092*[#   3]+0.092*[#   7]+0.042*[#   2]
          +0.042*[#   6]
    |psi|^2 = 0.768
==== e(   8) =    13.96260 eV ==== 
     psi = 0.023*[#   2]+0.023*[#   3]+0.023*[#   4]+0.023*[#   6]+0.023*[#   7]
          +0.023*[#   8]+0.020*[#   1]+0.020*[#   5]
    |psi|^2 = 0.179
==== e(   9) =    16.78814 eV ==== 
     psi = 0.001*[#   3]+0.001*[#   4]+0.001*[#   7]+0.001*[#   8]
    |psi|^2 = 0.006
==== e(  10) =    16.78814 eV ==== 
     psi = 0.001*[#   2]+0.001*[#   6]
    |psi|^2 = 0.006
==== e(  11) =    17.57085 eV ==== 
     psi = 0.059*[#   3]+0.059*[#   7]+0.030*[#   2]+0.030*[#   6]+0.006*[#   4]
          +0.006*[#   8]
    |psi|^2 = 0.190
==== e(  12) =    17.57085 eV ==== 
     psi = 0.057*[#   4]+0.057*[#   8]+0.033*[#   2]+0.033*[#   6]+0.005*[#   3]
          +0.005*[#   7]
    |psi|^2 = 0.190

 k =  -0.4750000000  0.4750000000  0.4750000000
==== e(   1) =    -3.43917 eV ==== 
     psi = 0.380*[#   1]+0.380*[#   5]+0.039*[#   2]+0.039*[#   3]+0.039*[#   4]
          +0.039*[#   6]+0.039*[#   7]+0.039*[#   8]
    |psi|^2 = 0.997
==== e(   2) =    -0.69191 eV ==== 
     psi = 0.125*[#   2]+0.125*[#   3]+0.125*[#   4]+0.125*[#   6]+0.125*[#   7]
          +0.125*[#   8]+0.119*[#   1]+0.119*[#   5]
    |psi|^2 = 0.987
==== e(   3) =     5.03428 eV ==== 
     psi = 0.320*[#   4]+0.320*[#   8]+0.122*[#   2]+0.122*[#   6]+0.052*[#   3]
          +0.052*[#   7]
    |psi|^2 = 0.988
==== e(   4) =     5.03428 eV ==== 
     psi = 0.277*[#   3]+0.277*[#   7]+0.207*[#   2]+0.207*[#   6]+0.009*[#   4]
          +0.009*[#   8]
    |psi|^2 = 0.988
==== e(   5) =     7.76429 eV ==== 
     psi = 0.342*[#   1]+0.342*[#   5]+0.039*[#   2]+0.039*[#   3]+0.039*[#   4]
          +0.039*[#   6]+0.039*[#   7]+0.039*[#   8]
    |psi|^2 = 0.921
==== e(   6) =     9.57372 eV ==== 
     psi = 0.253*[#   2]+0.253*[#   6]+0.089*[#   3]+0.089*[#   7]+0.042*[#   4]
          +0.042*[#   8]
    |psi|^2 = 0.769
==== e(   7) =     9.57372 eV ==== 
     psi = 0.214*[#   4]+0.214*[#   8]+0.167*[#   3]+0.167*[#   7]+0.003*[#   2]
          +0.003*[#   6]
    |psi|^2 = 0.769
==== e(   8) =    13.97057 eV ==== 
     psi = 0.024*[#   2]+0.024*[#   3]+0.024*[#   4]+0.024*[#   6]+0.024*[#   7]
          +0.024*[#   8]+0.021*[#   1]+0.021*[#   5]
    |psi|^2 = 0.182
==== e(   9) =    16.53474 eV ==== 
     psi = 0.016*[#   4]+0.016*[#   8]+0.006*[#   2]+0.006*[#   6]+0.003*[#   3]
          +0.003*[#   7]
    |psi|^2 = 0.048
==== e(  10) =    16.53474 eV ==== 
     psi = 0.013*[#   3]+0.013*[#   7]+0.010*[#   2]+0.010*[#   6]
    |psi|^2 = 0.048
==== e(  11) =    17.44801 eV ==== 
     psi = 0.040*[#   1]+0.040*[#   5]+0.009*[#   2]+0.009*[#   3]+0.009*[#   4]
          +0.009*[#   6]+0.009*[#   7]+0.009*[#   8]
    |psi|^2 = 0.134
==== e(  12) =    17.84288 eV ==== 
     psi = 0.045*[#   4]+0.045*[#   8]+0.024*[#   2]+0.024*[#   6]+0.005*[#   3]
          +0.005*[#   7]
    |psi|^2 = 0.147

 k =  -0.4500000000  0.4500000000  0.4500000000
==== e(   1) =    -3.53784 eV ==== 
     psi = 0.374*[#   1]+0.374*[#   5]+0.041*[#   2]+0.041*[#   3]+0.041*[#   4]
          +0.041*[#   6]+0.041*[#   7]+0.041*[#   8]
    |psi|^2 = 0.996
==== e(   2) =    -0.54689 eV ==== 
     psi = 0.126*[#   1]+0.126*[#   5]+0.122*[#   2]+0.122*[#   3]+0.122*[#   4]
          +0.122*[#   6]+0.122*[#   7]+0.122*[#   8]
    |psi|^2 = 0.987
==== e(   3) =     5.04776 eV ==== 
     psi = 0.305*[#   3]+0.305*[#   7]+0.169*[#   4]+0.169*[#   8]+0.020*[#   2]
          +0.020*[#   6]
    |psi|^2 = 0.987
==== e(   4) =     5.04776 eV ==== 
     psi = 0.309*[#   2]+0.309*[#   6]+0.160*[#   4]+0.160*[#   8]+0.024*[#   3]
          +0.024*[#   7]
    |psi|^2 = 0.987
==== e(   5) =     7.77975 eV ==== 
     psi = 0.340*[#   1]+0.340*[#   5]+0.040*[#   2]+0.040*[#   3]+0.040*[#   4]
          +0.040*[#   6]+0.040*[#   7]+0.040*[#   8]
    |psi|^2 = 0.922
==== e(   6) =     9.58893 eV ==== 
     psi = 0.223*[#   4]+0.223*[#   8]+0.085*[#   3]+0.085*[#   7]+0.078*[#   2]
          +0.078*[#   6]
    |psi|^2 = 0.771
==== e(   7) =     9.58893 eV ==== 
     psi = 0.180*[#   2]+0.180*[#   6]+0.172*[#   3]+0.172*[#   7]+0.034*[#   4]
          +0.034*[#   8]
    |psi|^2 = 0.771
==== e(   8) =    13.99383 eV ==== 
     psi = 0.025*[#   2]+0.025*[#   3]+0.025*[#   4]+0.025*[#   6]+0.025*[#   7]
          +0.025*[#   8]+0.022*[#   1]+0.022*[#   5]
    |psi|^2 = 0.191
==== e(   9) =    16.10048 eV ==== 
     psi = 0.019*[#   4]+0.019*[#   8]+0.017*[#   2]+0.017*[#   6]+0.003*[#   3]
          +0.003*[#   7]
    |psi|^2 = 0.077
==== e(  10) =    16.10048 eV ==== 
     psi = 0.022*[#   3]+0.022*[#   7]+0.009*[#   2]+0.009*[#   6]+0.007*[#   4]
          +0.007*[#   8]
    |psi|^2 = 0.077
==== e(  11) =    17.13005 eV ==== 
     psi = 0.055*[#   1]+0.055*[#   5]+0.023*[#   2]+0.023*[#   3]+0.023*[#   4]
          +0.023*[#   6]+0.023*[#   7]+0.023*[#   8]
    |psi|^2 = 0.250
==== e(  12) =    18.33279 eV ==== 
     psi = 0.030*[#   2]+0.030*[#   6]+0.019*[#   4]+0.019*[#   8]+0.010*[#   3]
          +0.010*[#   7]
    |psi|^2 = 0.116

 k =  -0.4250000000  0.4250000000  0.4250000000
==== e(   1) =    -3.68244 eV ==== 
     psi = 0.367*[#   1]+0.367*[#   5]+0.044*[#   2]+0.044*[#   3]+0.044*[#   4]
          +0.044*[#   6]+0.044*[#   7]+0.044*[#   8]
    |psi|^2 = 0.996
==== e(   2) =    -0.32518 eV ==== 
     psi = 0.134*[#   1]+0.134*[#   5]+0.120*[#   2]+0.120*[#   3]+0.120*[#   4]
          +0.120*[#   6]+0.120*[#   7]+0.120*[#   8]
    |psi|^2 = 0.987
==== e(   3) =     5.07019 eV ==== 
     psi = 0.312*[#   4]+0.312*[#   8]+0.154*[#   3]+0.154*[#   7]+0.028*[#   2]
          +0.028*[#   6]
    |psi|^2 = 0.987
==== e(   4) =     5.07019 eV ==== 
     psi = 0.301*[#   2]+0.301*[#   6]+0.175*[#   3]+0.175*[#   7]+0.017*[#   4]
          +0.017*[#   8]
    |psi|^2 = 0.987
==== e(   5) =     7.80545 eV ==== 
     psi = 0.336*[#   1]+0.336*[#   5]+0.042*[#   2]+0.042*[#   3]+0.042*[#   4]
          +0.042*[#   6]+0.042*[#   7]+0.042*[#   8]
    |psi|^2 = 0.924
==== e(   6) =     9.61302 eV ==== 
     psi = 0.255*[#   4]+0.255*[#   8]+0.074*[#   2]+0.074*[#   6]+0.059*[#   3]
          +0.059*[#   7]
    |psi|^2 = 0.775
==== e(   7) =     9.61302 eV ==== 
     psi = 0.200*[#   3]+0.200*[#   7]+0.185*[#   2]+0.185*[#   6]+0.003*[#   4]
          +0.003*[#   8]
    |psi|^2 = 0.775
==== e(   8) =    14.03004 eV ==== 
     psi = 0.027*[#   2]+0.027*[#   3]+0.027*[#   4]+0.027*[#   6]+0.027*[#   7]
          +0.027*[#   8]+0.024*[#   1]+0.024*[#   5]
    |psi|^2 = 0.209
==== e(   9) =    15.65371 eV ==== 
     psi = 0.023*[#   4]+0.023*[#   8]+0.011*[#   2]+0.011*[#   6]+0.011*[#   3]
          +0.011*[#   7]
    |psi|^2 = 0.091
==== e(  10) =    15.65371 eV ==== 
     psi = 0.019*[#   3]+0.019*[#   7]+0.019*[#   2]+0.019*[#   6]+0.007*[#   4]
          +0.007*[#   8]
    |psi|^2 = 0.091
==== e(  11) =    16.73642 eV ==== 
     psi = 0.068*[#   1]+0.068*[#   5]+0.033*[#   2]+0.033*[#   3]+0.033*[#   4]
          +0.033*[#   6]+0.033*[#   7]+0.033*[#   8]
    |psi|^2 = 0.337
==== e(  12) =    18.87118 eV ==== 
     psi = 0.023*[#   2]+0.023*[#   6]+0.017*[#   4]+0.017*[#   8]+0.010*[#   3]
          +0.010*[#   7]
    |psi|^2 = 0.099

 k =  -0.4000000000  0.4000000000  0.4000000000
==== e(   1) =    -3.85494 eV ==== 
     psi = 0.361*[#   1]+0.361*[#   5]+0.045*[#   2]+0.045*[#   3]+0.045*[#   4]
          +0.045*[#   6]+0.045*[#   7]+0.045*[#   8]
    |psi|^2 = 0.996
==== e(   2) =    -0.04498 eV ==== 
     psi = 0.141*[#   1]+0.141*[#   5]+0.118*[#   2]+0.118*[#   3]+0.118*[#   4]
          +0.118*[#   6]+0.118*[#   7]+0.118*[#   8]
    |psi|^2 = 0.988
==== e(   3) =     5.10156 eV ==== 
     psi = 0.271*[#   4]+0.271*[#   8]+0.161*[#   3]+0.161*[#   7]+0.061*[#   2]
          +0.061*[#   6]
    |psi|^2 = 0.987
==== e(   4) =     5.10156 eV ==== 
     psi = 0.267*[#   2]+0.267*[#   6]+0.168*[#   3]+0.168*[#   7]+0.058*[#   4]
          +0.058*[#   8]
    |psi|^2 = 0.987
==== e(   5) =     7.84127 eV ==== 
     psi = 0.330*[#   1]+0.330*[#   5]+0.044*[#   2]+0.044*[#   3]+0.044*[#   4]
          +0.044*[#   6]+0.044*[#   7]+0.044*[#   8]
    |psi|^2 = 0.926
==== e(   6) =     9.64401 eV ==== 
     psi = 0.194*[#   3]+0.194*[#   7]+0.171*[#   4]+0.171*[#   8]+0.026*[#   2]
          +0.026*[#   6]
    |psi|^2 = 0.782
==== e(   7) =     9.64401 eV ==== 
     psi = 0.235*[#   2]+0.235*[#   6]+0.090*[#   4]+0.090*[#   8]+0.066*[#   3]
          +0.066*[#   7]
    |psi|^2 = 0.782
==== e(   8) =    14.07407 eV ==== 
     psi = 0.031*[#   2]+0.031*[#   3]+0.031*[#   4]+0.031*[#   6]+0.031*[#   7]
          +0.031*[#   8]+0.028*[#   1]+0.028*[#   5]
    |psi|^2 = 0.241
==== e(   9) =    15.22320 eV ==== 
     psi = 0.027*[#   4]+0.027*[#   8]+0.022*[#   3]+0.022*[#   7]
    |psi|^2 = 0.098
==== e(  10) =    15.22320 eV ==== 
     psi = 0.032*[#   2]+0.032*[#   6]+0.011*[#   3]+0.011*[#   7]+0.006*[#   4]
          +0.006*[#   8]
    |psi|^2 = 0.098
==== e(  11) =    16.32064 eV ==== 
     psi = 0.078*[#   1]+0.078*[#   5]+0.039*[#   2]+0.039*[#   3]+0.039*[#   4]
          +0.039*[#   6]+0.039*[#   7]+0.039*[#   8]
    |psi|^2 = 0.388
==== e(  12) =    19.42643 eV ==== 
     psi = 0.025*[#   4]+0.025*[#   8]+0.016*[#   3]+0.016*[#   7]+0.003*[#   2]
          +0.003*[#   6]
    |psi|^2 = 0.087

 k =  -0.3750000000  0.3750000000  0.3750000000
==== e(   1) =    -4.04128 eV ==== 
     psi = 0.358*[#   1]+0.358*[#   5]+0.046*[#   2]+0.046*[#   3]+0.046*[#   4]
          +0.046*[#   6]+0.046*[#   7]+0.046*[#   8]
    |psi|^2 = 0.995
==== e(   2) =     0.27938 eV ==== 
     psi = 0.146*[#   1]+0.146*[#   5]+0.116*[#   2]+0.116*[#   3]+0.116*[#   4]
          +0.116*[#   6]+0.116*[#   7]+0.116*[#   8]
    |psi|^2 = 0.988
==== e(   3) =     5.14181 eV ==== 
     psi = 0.231*[#   2]+0.231*[#   6]+0.131*[#   3]+0.131*[#   7]+0.130*[#   4]
          +0.130*[#   8]
    |psi|^2 = 0.986
==== e(   4) =     5.14181 eV ==== 
     psi = 0.198*[#   4]+0.198*[#   8]+0.197*[#   3]+0.197*[#   7]+0.097*[#   2]
          +0.097*[#   6]
    |psi|^2 = 0.986
==== e(   5) =     7.88701 eV ==== 
     psi = 0.323*[#   1]+0.323*[#   5]+0.047*[#   2]+0.047*[#   3]+0.047*[#   4]
          +0.047*[#   6]+0.047*[#   7]+0.047*[#   8]
    |psi|^2 = 0.929
==== e(   6) =     9.67895 eV ==== 
     psi = 0.255*[#   4]+0.255*[#   8]+0.110*[#   3]+0.110*[#   7]+0.030*[#   2]
          +0.030*[#   6]
    |psi|^2 = 0.791
==== e(   7) =     9.67895 eV ==== 
     psi = 0.233*[#   2]+0.233*[#   6]+0.154*[#   3]+0.154*[#   7]+0.008*[#   4]
          +0.008*[#   8]
    |psi|^2 = 0.791
==== e(   8) =    14.11481 eV ==== 
     psi = 0.037*[#   2]+0.037*[#   3]+0.037*[#   4]+0.037*[#   6]+0.037*[#   7]
          +0.037*[#   8]+0.037*[#   1]+0.037*[#   5]
    |psi|^2 = 0.298
==== e(   9) =    14.81914 eV ==== 
     psi = 0.021*[#   3]+0.021*[#   7]+0.021*[#   2]+0.021*[#   6]+0.008*[#   4]
          +0.008*[#   8]
    |psi|^2 = 0.100
==== e(  10) =    14.81914 eV ==== 
     psi = 0.025*[#   4]+0.025*[#   8]+0.013*[#   2]+0.013*[#   6]+0.012*[#   3]
          +0.012*[#   7]
    |psi|^2 = 0.100
==== e(  11) =    15.91290 eV ==== 
     psi = 0.083*[#   1]+0.083*[#   5]+0.039*[#   2]+0.039*[#   3]+0.039*[#   4]
          +0.039*[#   6]+0.039*[#   7]+0.039*[#   8]
    |psi|^2 = 0.398
==== e(  12) =    19.98185 eV ==== 
     psi = 0.018*[#   2]+0.018*[#   6]+0.013*[#   4]+0.013*[#   8]+0.007*[#   3]
          +0.007*[#   7]
    |psi|^2 = 0.077

 k =  -0.3500000000  0.3500000000  0.3500000000
==== e(   1) =    -4.23177 eV ==== 
     psi = 0.358*[#   1]+0.358*[#   5]+0.046*[#   2]+0.046*[#   3]+0.046*[#   4]
          +0.046*[#   6]+0.046*[#   7]+0.046*[#   8]
    |psi|^2 = 0.995
==== e(   2) =     0.63782 eV ==== 
     psi = 0.149*[#   1]+0.149*[#   5]+0.115*[#   2]+0.115*[#   3]+0.115*[#   4]
          +0.115*[#   6]+0.115*[#   7]+0.115*[#   8]
    |psi|^2 = 0.988
==== e(   3) =     5.19081 eV ==== 
     psi = 0.307*[#   3]+0.307*[#   7]+0.138*[#   4]+0.138*[#   8]+0.047*[#   2]
          +0.047*[#   6]
    |psi|^2 = 0.985
==== e(   4) =     5.19081 eV ==== 
     psi = 0.282*[#   2]+0.282*[#   6]+0.190*[#   4]+0.190*[#   8]+0.021*[#   3]
          +0.021*[#   7]
    |psi|^2 = 0.985
==== e(   5) =     7.94242 eV ==== 
     psi = 0.315*[#   1]+0.315*[#   5]+0.050*[#   2]+0.050*[#   3]+0.050*[#   4]
          +0.050*[#   6]+0.050*[#   7]+0.050*[#   8]
    |psi|^2 = 0.932
==== e(   6) =     9.71373 eV ==== 
     psi = 0.197*[#   4]+0.197*[#   8]+0.175*[#   2]+0.175*[#   6]+0.029*[#   3]
          +0.029*[#   7]
    |psi|^2 = 0.804
==== e(   7) =     9.71373 eV ==== 
     psi = 0.238*[#   3]+0.238*[#   7]+0.092*[#   2]+0.092*[#   6]+0.071*[#   4]
          +0.071*[#   8]
    |psi|^2 = 0.804
==== e(   8) =    14.12729 eV ==== 
     psi = 0.055*[#   1]+0.055*[#   5]+0.049*[#   2]+0.049*[#   3]+0.049*[#   4]
          +0.049*[#   6]+0.049*[#   7]+0.049*[#   8]
    |psi|^2 = 0.404
==== e(   9) =    14.44832 eV ==== 
     psi = 0.029*[#   3]+0.029*[#   7]+0.018*[#   2]+0.018*[#   6]+0.001*[#   4]
          +0.001*[#   8]
    |psi|^2 = 0.098
==== e(  10) =    14.44832 eV ==== 
     psi = 0.031*[#   4]+0.031*[#   8]+0.014*[#   2]+0.014*[#   6]+0.003*[#   3]
          +0.003*[#   7]
    |psi|^2 = 0.098
==== e(  11) =    15.54544 eV ==== 
     psi = 0.079*[#   1]+0.079*[#   5]+0.032*[#   2]+0.032*[#   3]+0.032*[#   4]
          +0.032*[#   6]+0.032*[#   7]+0.032*[#   8]
    |psi|^2 = 0.348
==== e(  12) =    20.10617 eV ==== 
     psi = 0.025*[#   1]+0.025*[#   5]+0.021*[#   2]+0.021*[#   3]+0.021*[#   4]
          +0.021*[#   6]+0.021*[#   7]+0.021*[#   8]
    |psi|^2 = 0.177

 k =  -0.3250000000  0.3250000000  0.3250000000
==== e(   1) =    -4.41997 eV ==== 
     psi = 0.360*[#   1]+0.360*[#   5]+0.046*[#   2]+0.046*[#   3]+0.046*[#   4]
          +0.046*[#   6]+0.046*[#   7]+0.046*[#   8]
    |psi|^2 = 0.995
==== e(   2) =     1.02341 eV ==== 
     psi = 0.149*[#   1]+0.149*[#   5]+0.115*[#   2]+0.115*[#   3]+0.115*[#   4]
          +0.115*[#   6]+0.115*[#   7]+0.115*[#   8]
    |psi|^2 = 0.988
==== e(   3) =     5.24841 eV ==== 
     psi = 0.261*[#   2]+0.261*[#   6]+0.226*[#   3]+0.226*[#   7]+0.004*[#   4]
          +0.004*[#   8]
    |psi|^2 = 0.984
==== e(   4) =     5.24841 eV ==== 
     psi = 0.324*[#   4]+0.324*[#   8]+0.102*[#   3]+0.102*[#   7]+0.067*[#   2]
          +0.067*[#   6]
    |psi|^2 = 0.984
==== e(   5) =     8.00711 eV ==== 
     psi = 0.305*[#   1]+0.305*[#   5]+0.054*[#   2]+0.054*[#   3]+0.054*[#   4]
          +0.054*[#   6]+0.054*[#   7]+0.054*[#   8]
    |psi|^2 = 0.935
==== e(   6) =     9.74305 eV ==== 
     psi = 0.267*[#   2]+0.267*[#   6]+0.082*[#   4]+0.082*[#   8]+0.061*[#   3]
          +0.061*[#   7]
    |psi|^2 = 0.820
==== e(   7) =     9.74305 eV ==== 
     psi = 0.212*[#   3]+0.212*[#   7]+0.191*[#   4]+0.191*[#   8]+0.007*[#   2]
          +0.007*[#   6]
    |psi|^2 = 0.820
==== e(   8) =    14.06033 eV ==== 
     psi = 0.088*[#   1]+0.088*[#   5]+0.067*[#   2]+0.067*[#   3]+0.067*[#   4]
          +0.067*[#   6]+0.067*[#   7]+0.067*[#   8]
    |psi|^2 = 0.576
==== e(   9) =    14.11739 eV ==== 
     psi = 0.028*[#   3]+0.028*[#   7]+0.014*[#   4]+0.014*[#   8]+0.002*[#   2]
          +0.002*[#   6]
    |psi|^2 = 0.090
==== e(  10) =    14.11739 eV ==== 
     psi = 0.028*[#   2]+0.028*[#   6]+0.016*[#   4]+0.016*[#   8]+0.002*[#   3]
          +0.002*[#   7]
    |psi|^2 = 0.090
==== e(  11) =    15.27157 eV ==== 
     psi = 0.059*[#   1]+0.059*[#   5]+0.018*[#   2]+0.018*[#   3]+0.018*[#   4]
          +0.018*[#   6]+0.018*[#   7]+0.018*[#   8]
    |psi|^2 = 0.224
==== e(  12) =    19.68282 eV ==== 
     psi = 0.019*[#   1]+0.019*[#   5]+0.012*[#   2]+0.012*[#   3]+0.012*[#   4]
          +0.012*[#   6]+0.012*[#   7]+0.012*[#   8]
    |psi|^2 = 0.112

 k =  -0.3000000000  0.3000000000  0.3000000000
==== e(   1) =    -4.60160 eV ==== 
     psi = 0.365*[#   1]+0.365*[#   5]+0.044*[#   2]+0.044*[#   3]+0.044*[#   4]
          +0.044*[#   6]+0.044*[#   7]+0.044*[#   8]
    |psi|^2 = 0.995
==== e(   2) =     1.43122 eV ==== 
     psi = 0.148*[#   1]+0.148*[#   5]+0.115*[#   2]+0.115*[#   3]+0.115*[#   4]
          +0.115*[#   6]+0.115*[#   7]+0.115*[#   8]
    |psi|^2 = 0.988
==== e(   3) =     5.31432 eV ==== 
     psi = 0.227*[#   4]+0.227*[#   8]+0.204*[#   2]+0.204*[#   6]+0.060*[#   3]
          +0.060*[#   7]
    |psi|^2 = 0.983
==== e(   4) =     5.31432 eV ==== 
     psi = 0.267*[#   3]+0.267*[#   7]+0.124*[#   2]+0.124*[#   6]+0.101*[#   4]
          +0.101*[#   8]
    |psi|^2 = 0.983
==== e(   5) =     8.08051 eV ==== 
     psi = 0.294*[#   1]+0.294*[#   5]+0.058*[#   2]+0.058*[#   3]+0.058*[#   4]
          +0.058*[#   6]+0.058*[#   7]+0.058*[#   8]
    |psi|^2 = 0.938
==== e(   6) =     9.76042 eV ==== 
     psi = 0.262*[#   4]+0.262*[#   8]+0.136*[#   3]+0.136*[#   7]+0.022*[#   2]
          +0.022*[#   6]
    |psi|^2 = 0.840
==== e(   7) =     9.76042 eV ==== 
     psi = 0.258*[#   2]+0.258*[#   6]+0.144*[#   3]+0.144*[#   7]+0.018*[#   4]
          +0.018*[#   8]
    |psi|^2 = 0.840
==== e(   8) =    13.83338 eV ==== 
     psi = 0.024*[#   2]+0.024*[#   6]+0.013*[#   3]+0.013*[#   7]+0.002*[#   4]
          +0.002*[#   8]
    |psi|^2 = 0.078
==== e(   9) =    13.83338 eV ==== 
     psi = 0.024*[#   4]+0.024*[#   8]+0.013*[#   3]+0.013*[#   7]+0.002*[#   2]
          +0.002*[#   6]
    |psi|^2 = 0.078
==== e(  10) =    13.85742 eV ==== 
     psi = 0.128*[#   1]+0.128*[#   5]+0.082*[#   2]+0.082*[#   3]+0.082*[#   4]
          +0.082*[#   6]+0.082*[#   7]+0.082*[#   8]
    |psi|^2 = 0.746
==== e(  11) =    15.14667 eV ==== 
     psi = 0.032*[#   1]+0.032*[#   5]+0.005*[#   2]+0.005*[#   3]+0.005*[#   4]
          +0.005*[#   6]+0.005*[#   7]+0.005*[#   8]
    |psi|^2 = 0.093
==== e(  12) =    19.15848 eV ==== 
     psi = 0.015*[#   1]+0.015*[#   5]+0.007*[#   2]+0.007*[#   3]+0.007*[#   4]
          +0.007*[#   6]+0.007*[#   7]+0.007*[#   8]
    |psi|^2 = 0.074

 k =  -0.2750000000  0.2750000000  0.2750000000
==== e(   1) =    -4.77380 eV ==== 
     psi = 0.372*[#   1]+0.372*[#   5]+0.042*[#   2]+0.042*[#   3]+0.042*[#   4]
          +0.042*[#   6]+0.042*[#   7]+0.042*[#   8]
    |psi|^2 = 0.995
==== e(   2) =     1.85757 eV ==== 
     psi = 0.145*[#   1]+0.145*[#   5]+0.116*[#   2]+0.116*[#   3]+0.116*[#   4]
          +0.116*[#   6]+0.116*[#   7]+0.116*[#   8]
    |psi|^2 = 0.987
==== e(   3) =     5.38816 eV ==== 
     psi = 0.286*[#   2]+0.286*[#   6]+0.187*[#   4]+0.187*[#   8]+0.018*[#   3]
          +0.018*[#   7]
    |psi|^2 = 0.982
==== e(   4) =     5.38816 eV ==== 
     psi = 0.309*[#   3]+0.309*[#   7]+0.141*[#   4]+0.141*[#   8]+0.042*[#   2]
          +0.042*[#   6]
    |psi|^2 = 0.982
==== e(   5) =     8.16189 eV ==== 
     psi = 0.281*[#   1]+0.281*[#   5]+0.063*[#   2]+0.063*[#   3]+0.063*[#   4]
          +0.063*[#   6]+0.063*[#   7]+0.063*[#   8]
    |psi|^2 = 0.941
==== e(   6) =     9.75879 eV ==== 
     psi = 0.286*[#   4]+0.286*[#   8]+0.089*[#   2]+0.089*[#   6]+0.057*[#   3]
          +0.057*[#   7]
    |psi|^2 = 0.863
==== e(   7) =     9.75879 eV ==== 
     psi = 0.231*[#   3]+0.231*[#   7]+0.199*[#   2]+0.199*[#   6]+0.001*[#   4]
          +0.001*[#   8]
    |psi|^2 = 0.863
==== e(   8) =    13.53122 eV ==== 
     psi = 0.159*[#   1]+0.159*[#   5]+0.087*[#   2]+0.087*[#   3]+0.087*[#   4]
          +0.087*[#   6]+0.087*[#   7]+0.087*[#   8]
    |psi|^2 = 0.840
==== e(   9) =    13.60365 eV ==== 
     psi = 0.015*[#   4]+0.015*[#   8]+0.015*[#   3]+0.015*[#   7]+0.001*[#   2]
          +0.001*[#   6]
    |psi|^2 = 0.062
==== e(  10) =    13.60365 eV ==== 
     psi = 0.020*[#   2]+0.020*[#   6]+0.006*[#   3]+0.006*[#   7]+0.006*[#   4]
          +0.006*[#   8]
    |psi|^2 = 0.062
==== e(  11) =    15.15409 eV ==== 
     psi = 0.015*[#   1]+0.015*[#   5]
    |psi|^2 = 0.033
==== e(  12) =    18.60789 eV ==== 
     psi = 0.012*[#   1]+0.012*[#   5]+0.004*[#   2]+0.004*[#   3]+0.004*[#   4]
          +0.004*[#   6]+0.004*[#   7]+0.004*[#   8]
    |psi|^2 = 0.051

 k =  -0.2500000000  0.2500000000  0.2500000000
==== e(   1) =    -4.93459 eV ==== 
     psi = 0.381*[#   1]+0.381*[#   5]+0.039*[#   2]+0.039*[#   3]+0.039*[#   4]
          +0.039*[#   6]+0.039*[#   7]+0.039*[#   8]
    |psi|^2 = 0.995
==== e(   2) =     2.29940 eV ==== 
     psi = 0.140*[#   1]+0.140*[#   5]+0.118*[#   2]+0.118*[#   3]+0.118*[#   4]
          +0.118*[#   6]+0.118*[#   7]+0.118*[#   8]
    |psi|^2 = 0.986
==== e(   3) =     5.46932 eV ==== 
     psi = 0.269*[#   3]+0.269*[#   7]+0.188*[#   4]+0.188*[#   8]+0.034*[#   2]
          +0.034*[#   6]
    |psi|^2 = 0.981
==== e(   4) =     5.46932 eV ==== 
     psi = 0.293*[#   2]+0.293*[#   6]+0.139*[#   4]+0.139*[#   8]+0.058*[#   3]
          +0.058*[#   7]
    |psi|^2 = 0.981
==== e(   5) =     8.25023 eV ==== 
     psi = 0.266*[#   1]+0.266*[#   5]+0.069*[#   2]+0.069*[#   3]+0.069*[#   4]
          +0.069*[#   6]+0.069*[#   7]+0.069*[#   8]
    |psi|^2 = 0.944
==== e(   6) =     9.73169 eV ==== 
     psi = 0.283*[#   4]+0.283*[#   8]+0.133*[#   2]+0.133*[#   6]+0.028*[#   3]
          +0.028*[#   7]
    |psi|^2 = 0.887
==== e(   7) =     9.73169 eV ==== 
     psi = 0.267*[#   3]+0.267*[#   7]+0.163*[#   2]+0.163*[#   6]+0.013*[#   4]
          +0.013*[#   8]
    |psi|^2 = 0.887
==== e(   8) =    13.13708 eV ==== 
     psi = 0.181*[#   1]+0.181*[#   5]+0.087*[#   2]+0.087*[#   3]+0.087*[#   4]
          +0.087*[#   6]+0.087*[#   7]+0.087*[#   8]
    |psi|^2 = 0.885
==== e(   9) =    13.43461 eV ==== 
     psi = 0.014*[#   2]+0.014*[#   6]+0.006*[#   4]+0.006*[#   8]+0.003*[#   3]
          +0.003*[#   7]
    |psi|^2 = 0.046
==== e(  10) =    13.43461 eV ==== 
     psi = 0.012*[#   3]+0.012*[#   7]+0.009*[#   4]+0.009*[#   8]+0.001*[#   2]
          +0.001*[#   6]
    |psi|^2 = 0.046
==== e(  11) =    15.23010 eV ==== 
     psi = 0.008*[#   1]+0.008*[#   5]
    |psi|^2 = 0.017
==== e(  12) =    18.07260 eV ==== 
     psi = 0.010*[#   1]+0.010*[#   5]+0.002*[#   2]+0.002*[#   3]+0.002*[#   4]
          +0.002*[#   6]+0.002*[#   7]+0.002*[#   8]
    |psi|^2 = 0.035

 k =  -0.2250000000  0.2250000000  0.2250000000
==== e(   1) =    -5.08258 eV ==== 
     psi = 0.392*[#   1]+0.392*[#   5]+0.035*[#   2]+0.035*[#   3]+0.035*[#   4]
          +0.035*[#   6]+0.035*[#   7]+0.035*[#   8]
    |psi|^2 = 0.995
==== e(   2) =     2.75385 eV ==== 
     psi = 0.134*[#   1]+0.134*[#   5]+0.120*[#   2]+0.120*[#   3]+0.120*[#   4]
          +0.120*[#   6]+0.120*[#   7]+0.120*[#   8]
    |psi|^2 = 0.985
==== e(   3) =     5.55698 eV ==== 
     psi = 0.250*[#   4]+0.250*[#   8]+0.174*[#   3]+0.174*[#   7]+0.065*[#   2]
          +0.065*[#   6]
    |psi|^2 = 0.979
==== e(   4) =     5.55698 eV ==== 
     psi = 0.261*[#   2]+0.261*[#   6]+0.152*[#   3]+0.152*[#   7]+0.076*[#   4]
          +0.076*[#   8]
    |psi|^2 = 0.979
==== e(   5) =     8.34410 eV ==== 
     psi = 0.250*[#   1]+0.250*[#   5]+0.075*[#   2]+0.075*[#   3]+0.075*[#   4]
          +0.075*[#   6]+0.075*[#   7]+0.075*[#   8]
    |psi|^2 = 0.947
==== e(   6) =     9.67500 eV ==== 
     psi = 0.234*[#   3]+0.234*[#   7]+0.114*[#   2]+0.114*[#   6]+0.107*[#   4]
          +0.107*[#   8]
    |psi|^2 = 0.908
==== e(   7) =     9.67500 eV ==== 
     psi = 0.196*[#   4]+0.196*[#   8]+0.189*[#   2]+0.189*[#   6]+0.069*[#   3]
          +0.069*[#   7]
    |psi|^2 = 0.908
==== e(   8) =    12.71073 eV ==== 
     psi = 0.199*[#   1]+0.199*[#   5]+0.085*[#   2]+0.085*[#   3]+0.085*[#   4]
          +0.085*[#   6]+0.085*[#   7]+0.085*[#   8]
    |psi|^2 = 0.911
==== e(   9) =    13.33005 eV ==== 
     psi = 0.006*[#   2]+0.006*[#   6]+0.005*[#   3]+0.005*[#   4]+0.005*[#   7]
          +0.005*[#   8]
    |psi|^2 = 0.031
==== e(  10) =    13.33005 eV ==== 
     psi = 0.005*[#   3]+0.005*[#   4]+0.005*[#   7]+0.005*[#   8]+0.005*[#   2]
          +0.005*[#   6]
    |psi|^2 = 0.031
==== e(  11) =    15.32277 eV ==== 
     psi = 0.004*[#   1]+0.004*[#   5]+0.001*[#   2]+0.001*[#   3]+0.001*[#   4]
          +0.001*[#   6]+0.001*[#   7]+0.001*[#   8]
    |psi|^2 = 0.016
==== e(  12) =    17.58585 eV ==== 
     psi = 0.009*[#   1]+0.009*[#   5]
    |psi|^2 = 0.023

 k =  -0.2000000000  0.2000000000  0.2000000000
==== e(   1) =    -5.21675 eV ==== 
     psi = 0.404*[#   1]+0.404*[#   5]+0.031*[#   2]+0.031*[#   3]+0.031*[#   4]
          +0.031*[#   6]+0.031*[#   7]+0.031*[#   8]
    |psi|^2 = 0.996
==== e(   2) =     3.21802 eV ==== 
     psi = 0.125*[#   1]+0.125*[#   5]+0.122*[#   2]+0.122*[#   3]+0.122*[#   4]
          +0.122*[#   6]+0.122*[#   7]+0.122*[#   8]
    |psi|^2 = 0.984
==== e(   3) =     5.64994 eV ==== 
     psi = 0.311*[#   2]+0.311*[#   6]+0.148*[#   4]+0.148*[#   8]+0.030*[#   3]
          +0.030*[#   7]
    |psi|^2 = 0.977
==== e(   4) =     5.64994 eV ==== 
     psi = 0.296*[#   3]+0.296*[#   7]+0.178*[#   4]+0.178*[#   8]+0.015*[#   2]
          +0.015*[#   6]
    |psi|^2 = 0.977
==== e(   5) =     8.44158 eV ==== 
     psi = 0.232*[#   1]+0.232*[#   5]+0.081*[#   2]+0.081*[#   3]+0.081*[#   4]
          +0.081*[#   6]+0.081*[#   7]+0.081*[#   8]
    |psi|^2 = 0.950
==== e(   6) =     9.58864 eV ==== 
     psi = 0.265*[#   4]+0.265*[#   8]+0.181*[#   2]+0.181*[#   6]+0.017*[#   3]
          +0.017*[#   7]
    |psi|^2 = 0.926
==== e(   7) =     9.58864 eV ==== 
     psi = 0.292*[#   3]+0.292*[#   7]+0.127*[#   2]+0.127*[#   6]+0.044*[#   4]
          +0.044*[#   8]
    |psi|^2 = 0.926
==== e(   8) =    12.26872 eV ==== 
     psi = 0.218*[#   1]+0.218*[#   5]+0.082*[#   2]+0.082*[#   3]+0.082*[#   4]
          +0.082*[#   6]+0.082*[#   7]+0.082*[#   8]
    |psi|^2 = 0.929
==== e(   9) =    13.28949 eV ==== 
     psi = 0.005*[#   2]+0.005*[#   6]+0.004*[#   4]+0.004*[#   8]+0.001*[#   3]
          +0.001*[#   7]
    |psi|^2 = 0.019
==== e(  10) =    13.28949 eV ==== 
     psi = 0.005*[#   3]+0.005*[#   7]+0.003*[#   4]+0.003*[#   8]+0.002*[#   2]
          +0.002*[#   6]
    |psi|^2 = 0.019
==== e(  11) =    15.38448 eV ==== 
     psi = 0.003*[#   1]+0.003*[#   5]+0.002*[#   2]+0.002*[#   3]+0.002*[#   4]
          +0.002*[#   6]+0.002*[#   7]+0.002*[#   8]
    |psi|^2 = 0.017
==== e(  12) =    17.18851 eV ==== 
     psi = 0.007*[#   1]+0.007*[#   5]
    |psi|^2 = 0.015

 k =  -0.1750000000  0.1750000000  0.1750000000
==== e(   1) =    -5.33637 eV ==== 
     psi = 0.418*[#   1]+0.418*[#   5]+0.026*[#   2]+0.026*[#   3]+0.026*[#   4]
          +0.026*[#   6]+0.026*[#   7]+0.026*[#   8]
    |psi|^2 = 0.996
==== e(   2) =     3.68847 eV ==== 
     psi = 0.125*[#   2]+0.125*[#   3]+0.125*[#   4]+0.125*[#   6]+0.125*[#   7]
          +0.125*[#   8]+0.115*[#   1]+0.115*[#   5]
    |psi|^2 = 0.982
==== e(   3) =     5.74656 eV ==== 
     psi = 0.245*[#   4]+0.245*[#   8]+0.202*[#   2]+0.202*[#   6]+0.040*[#   3]
          +0.040*[#   7]
    |psi|^2 = 0.975
==== e(   4) =     5.74656 eV ==== 
     psi = 0.285*[#   3]+0.285*[#   7]+0.123*[#   2]+0.123*[#   6]+0.080*[#   4]
          +0.080*[#   8]
    |psi|^2 = 0.975
==== e(   5) =     8.54002 eV ==== 
     psi = 0.212*[#   1]+0.212*[#   5]+0.088*[#   2]+0.088*[#   3]+0.088*[#   4]
          +0.088*[#   6]+0.088*[#   7]+0.088*[#   8]
    |psi|^2 = 0.953
==== e(   6) =     9.47700 eV ==== 
     psi = 0.278*[#   3]+0.278*[#   7]+0.096*[#   4]+0.096*[#   8]+0.095*[#   2]
          +0.095*[#   6]
    |psi|^2 = 0.939
==== e(   7) =     9.47700 eV ==== 
     psi = 0.217*[#   2]+0.217*[#   6]+0.217*[#   4]+0.217*[#   8]+0.035*[#   3]
          +0.035*[#   7]
    |psi|^2 = 0.939
==== e(   8) =    11.81940 eV ==== 
     psi = 0.238*[#   1]+0.238*[#   5]+0.078*[#   2]+0.078*[#   3]+0.078*[#   4]
          +0.078*[#   6]+0.078*[#   7]+0.078*[#   8]
    |psi|^2 = 0.943
==== e(   9) =    13.30754 eV ==== 
     psi = 0.003*[#   2]+0.003*[#   6]+0.002*[#   3]+0.002*[#   7]
    |psi|^2 = 0.011
==== e(  10) =    13.30754 eV ==== 
     psi = 0.004*[#   4]+0.004*[#   8]+0.001*[#   3]+0.001*[#   7]
    |psi|^2 = 0.011
==== e(  11) =    15.35795 eV ==== 
     psi = 0.002*[#   2]+0.002*[#   3]+0.002*[#   4]+0.002*[#   6]+0.002*[#   7]
          +0.002*[#   8]+0.002*[#   1]+0.002*[#   5]
    |psi|^2 = 0.016
==== e(  12) =    16.93646 eV ==== 
     psi = 0.006*[#   1]+0.006*[#   5]
    |psi|^2 = 0.012

 k =  -0.1500000000  0.1500000000  0.1500000000
==== e(   1) =    -5.44089 eV ==== 
     psi = 0.434*[#   1]+0.434*[#   5]+0.021*[#   2]+0.021*[#   3]+0.021*[#   4]
          +0.021*[#   6]+0.021*[#   7]+0.021*[#   8]
    |psi|^2 = 0.996
==== e(   2) =     4.16077 eV ==== 
     psi = 0.129*[#   2]+0.129*[#   3]+0.129*[#   4]+0.129*[#   6]+0.129*[#   7]
          +0.129*[#   8]+0.103*[#   1]+0.103*[#   5]
    |psi|^2 = 0.980
==== e(   3) =     5.84459 eV ==== 
     psi = 0.205*[#   3]+0.205*[#   7]+0.182*[#   4]+0.182*[#   8]+0.099*[#   2]
          +0.099*[#   6]
    |psi|^2 = 0.973
==== e(   4) =     5.84459 eV ==== 
     psi = 0.225*[#   2]+0.225*[#   6]+0.142*[#   4]+0.142*[#   8]+0.119*[#   3]
          +0.119*[#   7]
    |psi|^2 = 0.973
==== e(   5) =     8.63575 eV ==== 
     psi = 0.188*[#   1]+0.188*[#   5]+0.096*[#   2]+0.096*[#   3]+0.096*[#   4]
          +0.096*[#   6]+0.096*[#   7]+0.096*[#   8]
    |psi|^2 = 0.956
==== e(   6) =     9.34814 eV ==== 
     psi = 0.270*[#   4]+0.270*[#   8]+0.118*[#   2]+0.118*[#   6]+0.085*[#   3]
          +0.085*[#   7]
    |psi|^2 = 0.947
==== e(   7) =     9.34814 eV ==== 
     psi = 0.231*[#   3]+0.231*[#   7]+0.198*[#   2]+0.198*[#   6]+0.046*[#   4]
          +0.046*[#   8]
    |psi|^2 = 0.947
==== e(   8) =    11.36909 eV ==== 
     psi = 0.261*[#   1]+0.261*[#   5]+0.072*[#   2]+0.072*[#   3]+0.072*[#   4]
          +0.072*[#   6]+0.072*[#   7]+0.072*[#   8]
    |psi|^2 = 0.954
==== e(   9) =    13.37459 eV ==== 
     psi = 0.002*[#   2]+0.002*[#   6]
    |psi|^2 = 0.007
==== e(  10) =    13.37459 eV ==== 
     psi = 0.002*[#   4]+0.002*[#   8]+0.001*[#   3]+0.001*[#   7]
    |psi|^2 = 0.007
==== e(  11) =    15.20942 eV ==== 
     psi = 0.002*[#   1]+0.002*[#   5]+0.001*[#   2]+0.001*[#   3]+0.001*[#   4]
          +0.001*[#   6]+0.001*[#   7]+0.001*[#   8]
    |psi|^2 = 0.012
==== e(  12) =    16.86312 eV ==== 
     psi = 0.004*[#   1]+0.004*[#   5]
    |psi|^2 = 0.013

 k =  -0.1250000000  0.1250000000  0.1250000000
==== e(   1) =    -5.52990 eV ==== 
     psi = 0.449*[#   1]+0.449*[#   5]+0.016*[#   2]+0.016*[#   3]+0.016*[#   4]
          +0.016*[#   6]+0.016*[#   7]+0.016*[#   8]
    |psi|^2 = 0.996
==== e(   2) =     4.62866 eV ==== 
     psi = 0.134*[#   2]+0.134*[#   3]+0.134*[#   4]+0.134*[#   6]+0.134*[#   7]
          +0.134*[#   8]+0.088*[#   1]+0.088*[#   5]
    |psi|^2 = 0.978
==== e(   3) =     5.94098 eV ==== 
     psi = 0.268*[#   3]+0.268*[#   7]+0.187*[#   2]+0.187*[#   6]+0.029*[#   4]
          +0.029*[#   8]
    |psi|^2 = 0.970
==== e(   4) =     5.94098 eV ==== 
     psi = 0.294*[#   4]+0.294*[#   8]+0.136*[#   2]+0.136*[#   6]+0.055*[#   3]
          +0.055*[#   7]
    |psi|^2 = 0.970
==== e(   5) =     8.72360 eV ==== 
     psi = 0.161*[#   1]+0.161*[#   5]+0.106*[#   2]+0.106*[#   3]+0.106*[#   4]
          +0.106*[#   6]+0.106*[#   7]+0.106*[#   8]
    |psi|^2 = 0.958
==== e(   6) =     9.21216 eV ==== 
     psi = 0.233*[#   4]+0.233*[#   8]+0.190*[#   3]+0.190*[#   7]+0.054*[#   2]
          +0.054*[#   6]
    |psi|^2 = 0.954
==== e(   7) =     9.21216 eV ==== 
     psi = 0.264*[#   2]+0.264*[#   6]+0.128*[#   3]+0.128*[#   7]+0.085*[#   4]
          +0.085*[#   8]
    |psi|^2 = 0.954
==== e(   8) =    10.92561 eV ==== 
     psi = 0.289*[#   1]+0.289*[#   5]+0.064*[#   2]+0.064*[#   3]+0.064*[#   4]
          +0.064*[#   6]+0.064*[#   7]+0.064*[#   8]
    |psi|^2 = 0.963
==== e(   9) =    13.47809 eV ==== 
     psi = 0.001*[#   4]+0.001*[#   8]
    |psi|^2 = 0.004
==== e(  10) =    13.47809 eV ==== 
     psi = 0.001*[#   2]+0.001*[#   6]
    |psi|^2 = 0.004
==== e(  11) =    14.97819 eV ==== 
     psi = 0.002*[#   1]+0.002*[#   5]
    |psi|^2 = 0.008
==== e(  12) =    16.92822 eV ==== 
     psi = 0.003*[#   1]+0.003*[#   5]+0.002*[#   2]+0.002*[#   3]+0.002*[#   4]
          +0.002*[#   6]+0.002*[#   7]+0.002*[#   8]
    |psi|^2 = 0.017

 k =  -0.1000000000  0.1000000000  0.1000000000
==== e(   1) =    -5.60309 eV ==== 
     psi = 0.464*[#   1]+0.464*[#   5]+0.011*[#   2]+0.011*[#   3]+0.011*[#   4]
          +0.011*[#   6]+0.011*[#   7]+0.011*[#   8]
    |psi|^2 = 0.996
==== e(   2) =     5.08245 eV ==== 
     psi = 0.139*[#   2]+0.139*[#   3]+0.139*[#   4]+0.139*[#   6]+0.139*[#   7]
          +0.139*[#   8]+0.071*[#   1]+0.071*[#   5]
    |psi|^2 = 0.975
==== e(   3) =     6.03172 eV ==== 
     psi = 0.266*[#   4]+0.266*[#   8]+0.210*[#   3]+0.210*[#   7]+0.009*[#   2]
          +0.009*[#   6]
    |psi|^2 = 0.968
==== e(   4) =     6.03172 eV ==== 
     psi = 0.314*[#   2]+0.314*[#   6]+0.113*[#   3]+0.113*[#   7]+0.057*[#   4]
          +0.057*[#   8]
    |psi|^2 = 0.968
==== e(   5) =     8.79602 eV ==== 
     psi = 0.126*[#   1]+0.126*[#   5]+0.118*[#   2]+0.118*[#   3]+0.118*[#   4]
          +0.118*[#   6]+0.118*[#   7]+0.118*[#   8]
    |psi|^2 = 0.960
==== e(   6) =     9.07980 eV ==== 
     psi = 0.288*[#   3]+0.288*[#   7]+0.152*[#   2]+0.152*[#   6]+0.039*[#   4]
          +0.039*[#   8]
    |psi|^2 = 0.958
==== e(   7) =     9.07980 eV ==== 
     psi = 0.280*[#   4]+0.280*[#   8]+0.167*[#   2]+0.167*[#   6]+0.032*[#   3]
          +0.032*[#   7]
    |psi|^2 = 0.958
==== e(   8) =    10.50160 eV ==== 
     psi = 0.327*[#   1]+0.327*[#   5]+0.053*[#   2]+0.053*[#   3]+0.053*[#   4]
          +0.053*[#   6]+0.053*[#   7]+0.053*[#   8]
    |psi|^2 = 0.971
==== e(   9) =    13.60333 eV ==== 

    |psi|^2 = 0.003
==== e(  10) =    13.60333 eV ==== 

    |psi|^2 = 0.003
==== e(  11) =    14.72983 eV ==== 
     psi = 0.002*[#   1]+0.002*[#   5]
    |psi|^2 = 0.005
==== e(  12) =    17.06282 eV ==== 
     psi = 0.003*[#   2]+0.003*[#   3]+0.003*[#   4]+0.003*[#   6]+0.003*[#   7]
          +0.003*[#   8]+0.002*[#   1]+0.002*[#   5]
    |psi|^2 = 0.019

 k =  -0.0750000000  0.0750000000  0.0750000000
==== e(   1) =    -5.66022 eV ==== 
     psi = 0.478*[#   1]+0.478*[#   5]+0.007*[#   2]+0.007*[#   3]+0.007*[#   4]
          +0.007*[#   6]+0.007*[#   7]+0.007*[#   8]
    |psi|^2 = 0.996
==== e(   2) =     5.50608 eV ==== 
     psi = 0.145*[#   2]+0.145*[#   3]+0.145*[#   4]+0.145*[#   6]+0.145*[#   7]
          +0.145*[#   8]+0.051*[#   1]+0.051*[#   5]
    |psi|^2 = 0.971
==== e(   3) =     6.11178 eV ==== 
     psi = 0.261*[#   4]+0.261*[#   8]+0.124*[#   3]+0.124*[#   7]+0.098*[#   2]
          +0.098*[#   6]
    |psi|^2 = 0.965
==== e(   4) =     6.11178 eV ==== 
     psi = 0.224*[#   2]+0.224*[#   6]+0.198*[#   3]+0.198*[#   7]+0.061*[#   4]
          +0.061*[#   8]
    |psi|^2 = 0.965
==== e(   5) =     8.84170 eV ==== 
     psi = 0.132*[#   2]+0.132*[#   3]+0.132*[#   4]+0.132*[#   6]+0.132*[#   7]
          +0.132*[#   8]+0.083*[#   1]+0.083*[#   5]
    |psi|^2 = 0.961
==== e(   6) =     8.96180 eV ==== 
     psi = 0.282*[#   3]+0.282*[#   7]+0.189*[#   2]+0.189*[#   6]+0.010*[#   4]
          +0.010*[#   8]
    |psi|^2 = 0.961
==== e(   7) =     8.96180 eV ==== 
     psi = 0.310*[#   4]+0.310*[#   8]+0.132*[#   2]+0.132*[#   6]+0.039*[#   3]
          +0.039*[#   7]
    |psi|^2 = 0.961
==== e(   8) =    10.11931 eV ==== 
     psi = 0.378*[#   1]+0.378*[#   5]+0.037*[#   2]+0.037*[#   3]+0.037*[#   4]
          +0.037*[#   6]+0.037*[#   7]+0.037*[#   8]
    |psi|^2 = 0.977
==== e(   9) =    13.73339 eV ==== 

    |psi|^2 = 0.002
==== e(  10) =    13.73339 eV ==== 

    |psi|^2 = 0.002
==== e(  11) =    14.50818 eV ==== 
     psi = 0.002*[#   1]+0.002*[#   5]
    |psi|^2 = 0.004
==== e(  12) =    17.21663 eV ==== 
     psi = 0.003*[#   2]+0.003*[#   3]+0.003*[#   4]+0.003*[#   6]+0.003*[#   7]
          +0.003*[#   8]
    |psi|^2 = 0.022

 k =  -0.0500000000  0.0500000000  0.0500000000
==== e(   1) =    -5.70115 eV ==== 
     psi = 0.489*[#   1]+0.489*[#   5]+0.003*[#   2]+0.003*[#   3]+0.003*[#   4]
          +0.003*[#   6]+0.003*[#   7]+0.003*[#   8]
    |psi|^2 = 0.996
==== e(   2) =     5.87176 eV ==== 
     psi = 0.151*[#   2]+0.151*[#   3]+0.151*[#   4]+0.151*[#   6]+0.151*[#   7]
          +0.151*[#   8]+0.029*[#   1]+0.029*[#   5]
    |psi|^2 = 0.967
==== e(   3) =     6.17534 eV ==== 
     psi = 0.225*[#   2]+0.225*[#   6]+0.183*[#   4]+0.183*[#   8]+0.073*[#   3]
          +0.073*[#   7]
    |psi|^2 = 0.963
==== e(   4) =     6.17534 eV ==== 
     psi = 0.248*[#   3]+0.248*[#   7]+0.138*[#   4]+0.138*[#   8]+0.096*[#   2]
          +0.096*[#   6]
    |psi|^2 = 0.963
==== e(   5) =     8.84663 eV ==== 
     psi = 0.149*[#   2]+0.149*[#   3]+0.149*[#   4]+0.149*[#   6]+0.149*[#   7]
          +0.149*[#   8]+0.035*[#   1]+0.035*[#   5]
    |psi|^2 = 0.962
==== e(   6) =     8.86826 eV ==== 
     psi = 0.260*[#   3]+0.260*[#   7]+0.220*[#   2]+0.220*[#   6]+0.002*[#   4]
          +0.002*[#   8]
    |psi|^2 = 0.964
==== e(   7) =     8.86826 eV ==== 
     psi = 0.319*[#   4]+0.319*[#   8]+0.101*[#   2]+0.101*[#   6]+0.061*[#   3]
          +0.061*[#   7]
    |psi|^2 = 0.964
==== e(   8) =     9.81561 eV ==== 
     psi = 0.438*[#   1]+0.438*[#   5]+0.018*[#   2]+0.018*[#   3]+0.018*[#   4]
          +0.018*[#   6]+0.018*[#   7]+0.018*[#   8]
    |psi|^2 = 0.982
==== e(   9) =    13.84912 eV ==== 

    |psi|^2 = 0.001
==== e(  10) =    13.84912 eV ==== 

    |psi|^2 = 0.001
==== e(  11) =    14.33710 eV ==== 
     psi = 0.001*[#   1]+0.001*[#   5]
    |psi|^2 = 0.003
==== e(  12) =    17.35530 eV ==== 
     psi = 0.004*[#   2]+0.004*[#   3]+0.004*[#   4]+0.004*[#   6]+0.004*[#   7]
          +0.004*[#   8]
    |psi|^2 = 0.023

 k =  -0.0250000000  0.0250000000  0.0250000000
==== e(   1) =    -5.72574 eV ==== 
     psi = 0.496*[#   1]+0.496*[#   5]
    |psi|^2 = 0.996
==== e(   2) =     6.13317 eV ==== 
     psi = 0.158*[#   2]+0.158*[#   3]+0.158*[#   4]+0.158*[#   6]+0.158*[#   7]
          +0.158*[#   8]+0.009*[#   1]+0.009*[#   5]
    |psi|^2 = 0.963
==== e(   3) =     6.21653 eV ==== 
     psi = 0.232*[#   2]+0.232*[#   6]+0.145*[#   4]+0.145*[#   8]+0.104*[#   3]
          +0.104*[#   7]
    |psi|^2 = 0.962
==== e(   4) =     6.21653 eV ==== 
     psi = 0.216*[#   3]+0.216*[#   7]+0.176*[#   4]+0.176*[#   8]+0.088*[#   2]
          +0.088*[#   6]
    |psi|^2 = 0.962
==== e(   5) =     8.80795 eV ==== 
     psi = 0.238*[#   3]+0.238*[#   7]+0.162*[#   4]+0.162*[#   8]+0.082*[#   2]
          +0.082*[#   6]
    |psi|^2 = 0.966
==== e(   6) =     8.80795 eV ==== 
     psi = 0.240*[#   2]+0.240*[#   6]+0.159*[#   4]+0.159*[#   8]+0.084*[#   3]
          +0.084*[#   7]
    |psi|^2 = 0.966
==== e(   7) =     8.81221 eV ==== 
     psi = 0.159*[#   2]+0.159*[#   3]+0.159*[#   4]+0.159*[#   6]+0.159*[#   7]
          +0.159*[#   8]+0.005*[#   1]+0.005*[#   5]
    |psi|^2 = 0.965
==== e(   8) =     9.63086 eV ==== 
     psi = 0.481*[#   1]+0.481*[#   5]+0.004*[#   2]+0.004*[#   3]+0.004*[#   4]
          +0.004*[#   6]+0.004*[#   7]+0.004*[#   8]
    |psi|^2 = 0.985
==== e(   9) =    13.93013 eV ==== 

    |psi|^2 = 0.000
==== e(  10) =    13.93013 eV ==== 

    |psi|^2 = 0.000
==== e(  11) =    14.22975 eV ==== 
     psi = 0.001*[#   1]+0.001*[#   5]
    |psi|^2 = 0.003
==== e(  12) =    17.45184 eV ==== 
     psi = 0.004*[#   2]+0.004*[#   3]+0.004*[#   4]+0.004*[#   6]+0.004*[#   7]
          +0.004*[#   8]
    |psi|^2 = 0.024

 k =   0.0000000000  0.0000000000  0.0000000000
==== e(   1) =    -5.73395 eV ==== 
     psi = 0.498*[#   1]+0.498*[#   5]
    |psi|^2 = 0.996
==== e(   2) =     6.23084 eV ==== 
     psi = 0.260*[#   2]+0.260*[#   6]+0.147*[#   3]+0.147*[#   7]+0.073*[#   4]
          +0.073*[#   8]
    |psi|^2 = 0.961
==== e(   3) =     6.23084 eV ==== 
     psi = 0.349*[#   4]+0.349*[#   8]+0.111*[#   3]+0.111*[#   7]+0.021*[#   2]
          +0.021*[#   6]
    |psi|^2 = 0.961
==== e(   4) =     6.23084 eV ==== 
     psi = 0.223*[#   3]+0.223*[#   7]+0.199*[#   2]+0.199*[#   6]+0.059*[#   4]
          +0.059*[#   8]
    |psi|^2 = 0.961
==== e(   5) =     8.78710 eV ==== 
     psi = 0.429*[#   2]+0.429*[#   6]+0.034*[#   4]+0.034*[#   8]+0.021*[#   3]
          +0.021*[#   7]
    |psi|^2 = 0.966
==== e(   6) =     8.78710 eV ==== 
     psi = 0.244*[#   4]+0.244*[#   8]+0.225*[#   3]+0.225*[#   7]+0.014*[#   2]
          +0.014*[#   6]
    |psi|^2 = 0.966
==== e(   7) =     8.78710 eV ==== 
     psi = 0.238*[#   3]+0.238*[#   7]+0.205*[#   4]+0.205*[#   8]+0.040*[#   2]
          +0.040*[#   6]
    |psi|^2 = 0.966
==== e(   8) =     9.57283 eV ==== 
     psi = 0.493*[#   1]+0.493*[#   5]
    |psi|^2 = 0.986
==== e(   9) =    13.95944 eV ==== 

    |psi|^2 = 0.000
==== e(  10) =    13.95944 eV ==== 

    |psi|^2 = 0.000
==== e(  11) =    14.19324 eV ==== 
     psi = 0.001*[#   1]+0.001*[#   5]
    |psi|^2 = 0.003
==== e(  12) =    17.48659 eV ==== 
     psi = 0.007*[#   4]+0.007*[#   8]+0.003*[#   3]+0.003*[#   7]+0.002*[#   2]
          +0.002*[#   6]
    |psi|^2 = 0.024

 k =  -0.0500000000  0.0000000000  0.0000000000
==== e(   1) =    -5.72301 eV ==== 
     psi = 0.495*[#   1]+0.495*[#   5]+0.003*[#   3]+0.003*[#   7]
    |psi|^2 = 0.996
==== e(   2) =     6.15600 eV ==== 
     psi = 0.469*[#   3]+0.469*[#   7]+0.012*[#   1]+0.012*[#   5]
    |psi|^2 = 0.962
==== e(   3) =     6.18373 eV ==== 
     psi = 0.305*[#   4]+0.292*[#   8]+0.190*[#   6]+0.176*[#   2]
    |psi|^2 = 0.963
==== e(   4) =     6.18373 eV ==== 
     psi = 0.305*[#   2]+0.292*[#   6]+0.190*[#   8]+0.176*[#   4]
    |psi|^2 = 0.963
==== e(   5) =     8.76002 eV ==== 
     psi = 0.480*[#   3]+0.480*[#   7]+0.003*[#   1]+0.003*[#   5]
    |psi|^2 = 0.966
==== e(   6) =     8.84767 eV ==== 
     psi = 0.387*[#   4]+0.341*[#   8]+0.141*[#   6]+0.095*[#   2]
    |psi|^2 = 0.964
==== e(   7) =     8.84767 eV ==== 
     psi = 0.387*[#   2]+0.341*[#   6]+0.141*[#   8]+0.095*[#   4]
    |psi|^2 = 0.964
==== e(   8) =     9.64593 eV ==== 
     psi = 0.481*[#   1]+0.481*[#   5]+0.012*[#   3]+0.012*[#   7]
    |psi|^2 = 0.985
==== e(   9) =    13.87029 eV ==== 

    |psi|^2 = 0.001
==== e(  10) =    13.97152 eV ==== 

    |psi|^2 = 0.000
==== e(  11) =    14.24189 eV ==== 
     psi = 0.001*[#   1]+0.001*[#   5]
    |psi|^2 = 0.003
==== e(  12) =    17.50556 eV ==== 
     psi = 0.009*[#   2]+0.009*[#   6]+0.003*[#   8]+0.003*[#   4]
    |psi|^2 = 0.024

 k =  -0.1000000000  0.0000000000  0.0000000000
==== e(   1) =    -5.69020 eV ==== 
     psi = 0.486*[#   1]+0.486*[#   5]+0.012*[#   3]+0.012*[#   7]
    |psi|^2 = 0.996
==== e(   2) =     5.94949 eV ==== 
     psi = 0.441*[#   3]+0.441*[#   7]+0.041*[#   1]+0.041*[#   5]
    |psi|^2 = 0.965
==== e(   3) =     6.05455 eV ==== 
     psi = 0.467*[#   6]+0.273*[#   2]+0.210*[#   4]+0.016*[#   8]
    |psi|^2 = 0.966
==== e(   4) =     6.05455 eV ==== 
     psi = 0.467*[#   8]+0.273*[#   4]+0.210*[#   2]+0.016*[#   6]
    |psi|^2 = 0.966
==== e(   5) =     8.68204 eV ==== 
     psi = 0.471*[#   3]+0.471*[#   7]+0.012*[#   1]+0.012*[#   5]
    |psi|^2 = 0.965
==== e(   6) =     9.01721 eV ==== 
     psi = 0.456*[#   8]+0.260*[#   4]+0.220*[#   2]+0.024*[#   6]
    |psi|^2 = 0.959
==== e(   7) =     9.01721 eV ==== 
     psi = 0.456*[#   6]+0.260*[#   2]+0.220*[#   4]+0.024*[#   8]
    |psi|^2 = 0.959
==== e(   8) =     9.84417 eV ==== 
     psi = 0.451*[#   1]+0.451*[#   5]+0.041*[#   3]+0.041*[#   7]
    |psi|^2 = 0.984
==== e(   9) =    13.63149 eV ==== 

    |psi|^2 = 0.003
==== e(  10) =    14.00786 eV ==== 

    |psi|^2 = 0.000
==== e(  11) =    14.38463 eV ==== 
     psi = 0.001*[#   1]+0.001*[#   5]
    |psi|^2 = 0.003
==== e(  12) =    17.56254 eV ==== 
     psi = 0.011*[#   4]+0.011*[#   8]+0.001*[#   6]
    |psi|^2 = 0.024

 k =  -0.1500000000  0.0000000000  0.0000000000
==== e(   1) =    -5.63556 eV ==== 
     psi = 0.472*[#   1]+0.472*[#   5]+0.026*[#   3]+0.026*[#   7]
    |psi|^2 = 0.996
==== e(   2) =     5.64912 eV ==== 
     psi = 0.409*[#   3]+0.409*[#   7]+0.075*[#   1]+0.075*[#   5]
    |psi|^2 = 0.968
==== e(   3) =     5.86940 eV ==== 
     psi = 0.402*[#   6]+0.243*[#   4]+0.242*[#   2]+0.083*[#   8]
    |psi|^2 = 0.970
==== e(   4) =     5.86940 eV ==== 
     psi = 0.402*[#   8]+0.243*[#   2]+0.242*[#   4]+0.083*[#   6]
    |psi|^2 = 0.970
==== e(   5) =     8.56154 eV ==== 
     psi = 0.457*[#   3]+0.457*[#   7]+0.025*[#   1]+0.025*[#   5]
    |psi|^2 = 0.965
==== e(   6) =     9.26941 eV ==== 
     psi = 0.432*[#   4]+0.282*[#   8]+0.195*[#   6]+0.044*[#   2]
    |psi|^2 = 0.952
==== e(   7) =     9.26941 eV ==== 
     psi = 0.432*[#   2]+0.282*[#   6]+0.195*[#   8]+0.044*[#   4]
    |psi|^2 = 0.952
==== e(   8) =    10.11770 eV ==== 
     psi = 0.416*[#   1]+0.416*[#   5]+0.075*[#   3]+0.075*[#   7]
    |psi|^2 = 0.981
==== e(   9) =    13.30845 eV ==== 
     psi = 0.002*[#   1]+0.002*[#   5]
    |psi|^2 = 0.007
==== e(  10) =    14.06842 eV ==== 

    |psi|^2 = 0.000
==== e(  11) =    14.61277 eV ==== 
     psi = 0.001*[#   1]+0.001*[#   5]
    |psi|^2 = 0.003
==== e(  12) =    17.65731 eV ==== 
     psi = 0.010*[#   4]+0.009*[#   8]+0.002*[#   6]+0.002*[#   2]
    |psi|^2 = 0.024

 k =  -0.2000000000  0.0000000000  0.0000000000
==== e(   1) =    -5.55917 eV ==== 
     psi = 0.454*[#   1]+0.454*[#   5]+0.044*[#   3]+0.044*[#   7]
    |psi|^2 = 0.996
==== e(   2) =     5.28921 eV ==== 
     psi = 0.380*[#   3]+0.380*[#   7]+0.106*[#   1]+0.106*[#   5]
    |psi|^2 = 0.971
==== e(   3) =     5.65288 eV ==== 
     psi = 0.436*[#   2]+0.321*[#   6]+0.166*[#   8]+0.051*[#   4]
    |psi|^2 = 0.974
==== e(   4) =     5.65288 eV ==== 
     psi = 0.436*[#   4]+0.321*[#   8]+0.166*[#   6]+0.051*[#   2]
    |psi|^2 = 0.974
==== e(   5) =     8.40955 eV ==== 
     psi = 0.440*[#   3]+0.440*[#   7]+0.042*[#   1]+0.042*[#   5]
    |psi|^2 = 0.963
==== e(   6) =     9.57936 eV ==== 
     psi = 0.421*[#   4]+0.369*[#   6]+0.103*[#   8]+0.051*[#   2]
    |psi|^2 = 0.944
==== e(   7) =     9.57936 eV ==== 
     psi = 0.421*[#   2]+0.369*[#   8]+0.103*[#   6]+0.051*[#   4]
    |psi|^2 = 0.944
==== e(   8) =    10.40283 eV ==== 
     psi = 0.377*[#   1]+0.377*[#   5]+0.106*[#   3]+0.106*[#   7]
    |psi|^2 = 0.966
==== e(   9) =    12.97937 eV ==== 
     psi = 0.011*[#   1]+0.011*[#   5]
    |psi|^2 = 0.021
==== e(  10) =    14.15317 eV ==== 

    |psi|^2 = 0.000
==== e(  11) =    14.91469 eV ==== 
     psi = 0.001*[#   1]+0.001*[#   5]
    |psi|^2 = 0.003
==== e(  12) =    17.78949 eV ==== 
     psi = 0.011*[#   8]+0.010*[#   4]+0.002*[#   2]
    |psi|^2 = 0.023

 k =  -0.2500000000  0.0000000000  0.0000000000
==== e(   1) =    -5.46114 eV ==== 
     psi = 0.435*[#   1]+0.435*[#   5]+0.063*[#   3]+0.063*[#   7]
    |psi|^2 = 0.996
==== e(   2) =     4.89301 eV ==== 
     psi = 0.355*[#   3]+0.355*[#   7]+0.132*[#   1]+0.132*[#   5]
    |psi|^2 = 0.975
==== e(   3) =     5.42241 eV ==== 
     psi = 0.466*[#   8]+0.358*[#   2]+0.131*[#   4]+0.023*[#   6]
    |psi|^2 = 0.978
==== e(   4) =     5.42241 eV ==== 
     psi = 0.466*[#   6]+0.358*[#   4]+0.131*[#   2]+0.023*[#   8]
    |psi|^2 = 0.978
==== e(   5) =     8.23726 eV ==== 
     psi = 0.421*[#   3]+0.421*[#   7]+0.060*[#   1]+0.060*[#   5]
    |psi|^2 = 0.962
==== e(   6) =     9.92921 eV ==== 
     psi = 0.416*[#   6]+0.362*[#   4]+0.105*[#   2]+0.052*[#   8]
    |psi|^2 = 0.935
==== e(   7) =     9.92921 eV ==== 
     psi = 0.416*[#   8]+0.362*[#   2]+0.105*[#   4]+0.052*[#   6]
    |psi|^2 = 0.935
==== e(   8) =    10.61138 eV ==== 
     psi = 0.325*[#   1]+0.325*[#   5]+0.130*[#   3]+0.130*[#   7]
    |psi|^2 = 0.909
==== e(   9) =    12.74323 eV ==== 
     psi = 0.037*[#   1]+0.037*[#   5]+0.003*[#   3]+0.003*[#   7]
    |psi|^2 = 0.079
==== e(  10) =    14.26211 eV ==== 

    |psi|^2 = 0.000
==== e(  11) =    15.27836 eV ==== 
     psi = 0.001*[#   1]+0.001*[#   5]
    |psi|^2 = 0.003
==== e(  12) =    17.95833 eV ==== 
     psi = 0.011*[#   2]+0.008*[#   6]+0.004*[#   8]
    |psi|^2 = 0.023

 k =  -0.3000000000  0.0000000000  0.0000000000
==== e(   1) =    -5.34160 eV ==== 
     psi = 0.416*[#   1]+0.416*[#   5]+0.082*[#   3]+0.082*[#   7]
    |psi|^2 = 0.996
==== e(   2) =     4.47467 eV ==== 
     psi = 0.335*[#   3]+0.335*[#   7]+0.154*[#   1]+0.154*[#   5]
    |psi|^2 = 0.977
==== e(   3) =     5.18920 eV ==== 
     psi = 0.369*[#   2]+0.319*[#   6]+0.172*[#   8]+0.122*[#   4]
    |psi|^2 = 0.981
==== e(   4) =     5.18920 eV ==== 
     psi = 0.369*[#   4]+0.319*[#   8]+0.172*[#   6]+0.122*[#   2]
    |psi|^2 = 0.981
==== e(   5) =     8.05456 eV ==== 
     psi = 0.402*[#   3]+0.402*[#   7]+0.078*[#   1]+0.078*[#   5]
    |psi|^2 = 0.960
==== e(   6) =    10.30729 eV ==== 
     psi = 0.425*[#   4]+0.281*[#   6]+0.181*[#   8]+0.037*[#   2]
    |psi|^2 = 0.924
==== e(   7) =    10.30729 eV ==== 
     psi = 0.425*[#   2]+0.281*[#   8]+0.181*[#   6]+0.037*[#   4]
    |psi|^2 = 0.924
==== e(   8) =    10.63302 eV ==== 
     psi = 0.252*[#   1]+0.252*[#   5]+0.135*[#   3]+0.135*[#   7]
    |psi|^2 = 0.775
==== e(   9) =    12.71778 eV ==== 
     psi = 0.088*[#   1]+0.088*[#   5]+0.019*[#   3]+0.019*[#   7]
    |psi|^2 = 0.214
==== e(  10) =    14.39522 eV ==== 

    |psi|^2 = 0.000
==== e(  11) =    15.69259 eV ==== 
     psi = 0.001*[#   1]+0.001*[#   5]
    |psi|^2 = 0.003
==== e(  12) =    18.16244 eV ==== 
     psi = 0.010*[#   4]+0.006*[#   8]+0.005*[#   6]+0.001*[#   2]
    |psi|^2 = 0.023

 k =  -0.3500000000  0.0000000000  0.0000000000
==== e(   1) =    -5.20073 eV ==== 
     psi = 0.398*[#   1]+0.398*[#   5]+0.100*[#   3]+0.100*[#   7]
    |psi|^2 = 0.996
==== e(   2) =     4.04268 eV ==== 
     psi = 0.318*[#   3]+0.318*[#   7]+0.172*[#   1]+0.172*[#   5]
    |psi|^2 = 0.980
==== e(   3) =     4.96031 eV ==== 
     psi = 0.415*[#   2]+0.257*[#   8]+0.235*[#   6]+0.077*[#   4]
    |psi|^2 = 0.984
==== e(   4) =     4.96031 eV ==== 
     psi = 0.415*[#   4]+0.257*[#   6]+0.235*[#   8]+0.077*[#   2]
    |psi|^2 = 0.984
==== e(   5) =     7.86955 eV ==== 
     psi = 0.383*[#   3]+0.383*[#   7]+0.096*[#   1]+0.096*[#   5]
    |psi|^2 = 0.957
==== e(   6) =    10.43942 eV ==== 
     psi = 0.187*[#   1]+0.187*[#   5]+0.127*[#   3]+0.127*[#   7]
    |psi|^2 = 0.629
==== e(   7) =    10.70603 eV ==== 
     psi = 0.343*[#   4]+0.265*[#   8]+0.191*[#   6]+0.113*[#   2]
    |psi|^2 = 0.912
==== e(   8) =    10.70603 eV ==== 
     psi = 0.343*[#   2]+0.265*[#   6]+0.191*[#   8]+0.113*[#   4]
    |psi|^2 = 0.912
==== e(   9) =    12.93627 eV ==== 
     psi = 0.135*[#   1]+0.135*[#   5]+0.045*[#   3]+0.045*[#   7]
    |psi|^2 = 0.360
==== e(  10) =    14.55245 eV ==== 

    |psi|^2 = 0.000
==== e(  11) =    16.14750 eV ==== 
     psi = 0.001*[#   1]+0.001*[#   5]
    |psi|^2 = 0.003
==== e(  12) =    18.39941 eV ==== 
     psi = 0.010*[#   8]+0.010*[#   4]+0.001*[#   2]
    |psi|^2 = 0.023

 k =  -0.4000000000  0.0000000000  0.0000000000
==== e(   1) =    -5.03874 eV ==== 
     psi = 0.380*[#   1]+0.380*[#   5]+0.117*[#   3]+0.117*[#   7]
    |psi|^2 = 0.995
==== e(   2) =     3.60221 eV ==== 
     psi = 0.303*[#   3]+0.303*[#   7]+0.188*[#   1]+0.188*[#   5]
    |psi|^2 = 0.982
==== e(   3) =     4.74033 eV ==== 
     psi = 0.486*[#   6]+0.438*[#   4]+0.055*[#   2]+0.007*[#   8]
    |psi|^2 = 0.986
==== e(   4) =     4.74033 eV ==== 
     psi = 0.486*[#   8]+0.438*[#   2]+0.055*[#   4]+0.007*[#   6]
    |psi|^2 = 0.986
==== e(   5) =     7.68861 eV ==== 
     psi = 0.366*[#   3]+0.366*[#   7]+0.112*[#   1]+0.112*[#   5]
    |psi|^2 = 0.955
==== e(   6) =    10.11634 eV ==== 
     psi = 0.150*[#   1]+0.150*[#   5]+0.122*[#   3]+0.122*[#   7]
    |psi|^2 = 0.544
==== e(   7) =    11.12039 eV ==== 
     psi = 0.395*[#   4]+0.346*[#   6]+0.104*[#   8]+0.054*[#   2]
    |psi|^2 = 0.899
==== e(   8) =    11.12039 eV ==== 
     psi = 0.395*[#   2]+0.346*[#   8]+0.104*[#   6]+0.054*[#   4]
    |psi|^2 = 0.899
==== e(   9) =    13.31587 eV ==== 
     psi = 0.157*[#   1]+0.157*[#   5]+0.066*[#   3]+0.066*[#   7]
    |psi|^2 = 0.446
==== e(  10) =    14.73369 eV ==== 

    |psi|^2 = 0.000
==== e(  11) =    16.63410 eV ==== 
     psi = 0.001*[#   1]+0.001*[#   5]
    |psi|^2 = 0.003
==== e(  12) =    18.66488 eV ==== 
     psi = 0.011*[#   8]+0.006*[#   4]+0.006*[#   2]
    |psi|^2 = 0.024

 k =  -0.4500000000  0.0000000000  0.0000000000
==== e(   1) =    -4.85588 eV ==== 
     psi = 0.365*[#   1]+0.365*[#   5]+0.133*[#   3]+0.133*[#   7]
    |psi|^2 = 0.995
==== e(   2) =     3.15659 eV ==== 
     psi = 0.291*[#   3]+0.291*[#   7]+0.201*[#   1]+0.201*[#   5]
    |psi|^2 = 0.984
==== e(   3) =     4.53232 eV ==== 
     psi = 0.486*[#   2]+0.480*[#   8]+0.014*[#   6]+0.008*[#   4]
    |psi|^2 = 0.988
==== e(   4) =     4.53232 eV ==== 
     psi = 0.486*[#   4]+0.480*[#   6]+0.014*[#   8]+0.008*[#   2]
    |psi|^2 = 0.988
==== e(   5) =     7.51672 eV ==== 
     psi = 0.350*[#   3]+0.350*[#   7]+0.126*[#   1]+0.126*[#   5]
    |psi|^2 = 0.951
==== e(   6) =     9.74386 eV ==== 
     psi = 0.133*[#   1]+0.133*[#   5]+0.122*[#   3]+0.122*[#   7]
    |psi|^2 = 0.511
==== e(   7) =    11.54693 eV ==== 
     psi = 0.383*[#   8]+0.350*[#   2]+0.092*[#   4]+0.059*[#   6]
    |psi|^2 = 0.884
==== e(   8) =    11.54693 eV ==== 
     psi = 0.383*[#   6]+0.350*[#   4]+0.092*[#   2]+0.059*[#   8]
    |psi|^2 = 0.884
==== e(   9) =    13.77825 eV ==== 
     psi = 0.161*[#   1]+0.161*[#   5]+0.079*[#   3]+0.079*[#   7]
    |psi|^2 = 0.480
==== e(  10) =    14.93906 eV ==== 

    |psi|^2 = 0.000
==== e(  11) =    17.14363 eV ==== 
     psi = 0.001*[#   1]+0.001*[#   5]
    |psi|^2 = 0.004
==== e(  12) =    18.95089 eV ==== 
     psi = 0.011*[#   2]+0.010*[#   8]+0.003*[#   6]+0.002*[#   4]
    |psi|^2 = 0.026

 k =  -0.5000000000  0.0000000000  0.0000000000
==== e(   1) =    -4.65244 eV ==== 
     psi = 0.351*[#   1]+0.351*[#   5]+0.147*[#   3]+0.147*[#   7]
    |psi|^2 = 0.995
==== e(   2) =     2.70812 eV ==== 
     psi = 0.280*[#   3]+0.280*[#   7]+0.213*[#   1]+0.213*[#   5]
    |psi|^2 = 0.986
==== e(   3) =     4.33841 eV ==== 
     psi = 0.293*[#   6]+0.267*[#   4]+0.228*[#   2]+0.202*[#   8]
    |psi|^2 = 0.990
==== e(   4) =     4.33841 eV ==== 
     psi = 0.293*[#   8]+0.267*[#   2]+0.228*[#   4]+0.202*[#   6]
    |psi|^2 = 0.990
==== e(   5) =     7.35773 eV ==== 
     psi = 0.336*[#   3]+0.336*[#   7]+0.138*[#   1]+0.138*[#   5]
    |psi|^2 = 0.948
==== e(   6) =     9.36299 eV ==== 
     psi = 0.127*[#   1]+0.127*[#   5]+0.127*[#   3]+0.127*[#   7]
    |psi|^2 = 0.509
==== e(   7) =    11.98318 eV ==== 
     psi = 0.248*[#   6]+0.234*[#   2]+0.199*[#   4]+0.185*[#   8]
    |psi|^2 = 0.866
==== e(   8) =    11.98318 eV ==== 
     psi = 0.248*[#   8]+0.234*[#   4]+0.199*[#   2]+0.185*[#   6]
    |psi|^2 = 0.866
==== e(   9) =    14.28232 eV ==== 
     psi = 0.156*[#   1]+0.156*[#   5]+0.085*[#   3]+0.085*[#   7]
    |psi|^2 = 0.482
==== e(  10) =    15.16840 eV ==== 

    |psi|^2 = 0.000
==== e(  11) =    17.66643 eV ==== 
     psi = 0.002*[#   1]+0.002*[#   5]
    |psi|^2 = 0.004
==== e(  12) =    19.24233 eV ==== 
     psi = 0.011*[#   2]+0.009*[#   8]+0.007*[#   6]+0.004*[#   4]
    |psi|^2 = 0.031

 k =  -0.5500000000  0.0000000000  0.0000000000
==== e(   1) =    -4.42877 eV ==== 
     psi = 0.339*[#   1]+0.339*[#   5]+0.159*[#   3]+0.159*[#   7]
    |psi|^2 = 0.995
==== e(   2) =     2.25861 eV ==== 
     psi = 0.271*[#   3]+0.271*[#   7]+0.223*[#   1]+0.223*[#   5]
    |psi|^2 = 0.988
==== e(   3) =     4.16010 eV ==== 
     psi = 0.443*[#   2]+0.380*[#   8]+0.116*[#   6]+0.053*[#   4]
    |psi|^2 = 0.991
==== e(   4) =     4.16010 eV ==== 
     psi = 0.443*[#   4]+0.380*[#   6]+0.116*[#   8]+0.053*[#   2]
    |psi|^2 = 0.991
==== e(   5) =     7.21467 eV ==== 
     psi = 0.323*[#   3]+0.323*[#   7]+0.149*[#   1]+0.149*[#   5]
    |psi|^2 = 0.943
==== e(   6) =     8.99342 eV ==== 
     psi = 0.135*[#   3]+0.135*[#   7]+0.127*[#   1]+0.127*[#   5]
    |psi|^2 = 0.525
==== e(   7) =    12.42751 eV ==== 
     psi = 0.406*[#   6]+0.391*[#   4]+0.032*[#   2]+0.017*[#   8]
    |psi|^2 = 0.847
==== e(   8) =    12.42751 eV ==== 
     psi = 0.406*[#   8]+0.391*[#   2]+0.032*[#   4]+0.017*[#   6]
    |psi|^2 = 0.847
==== e(   9) =    14.80803 eV ==== 
     psi = 0.147*[#   1]+0.147*[#   5]+0.086*[#   3]+0.086*[#   7]
    |psi|^2 = 0.466
==== e(  10) =    15.42170 eV ==== 

    |psi|^2 = 0.000
==== e(  11) =    18.19095 eV ==== 
     psi = 0.002*[#   1]+0.002*[#   5]
    |psi|^2 = 0.004
==== e(  12) =    19.51013 eV ==== 
     psi = 0.021*[#   2]+0.016*[#   8]+0.005*[#   6]
    |psi|^2 = 0.041

 k =  -0.6000000000  0.0000000000  0.0000000000
==== e(   1) =    -4.18526 eV ==== 
     psi = 0.328*[#   1]+0.328*[#   5]+0.169*[#   3]+0.169*[#   7]
    |psi|^2 = 0.994
==== e(   2) =     1.80958 eV ==== 
     psi = 0.263*[#   3]+0.263*[#   7]+0.232*[#   1]+0.232*[#   5]
    |psi|^2 = 0.989
==== e(   3) =     3.99851 eV ==== 
     psi = 0.303*[#   6]+0.296*[#   4]+0.200*[#   2]+0.193*[#   8]
    |psi|^2 = 0.992
==== e(   4) =     3.99851 eV ==== 
     psi = 0.303*[#   8]+0.296*[#   2]+0.200*[#   4]+0.193*[#   6]
    |psi|^2 = 0.992
==== e(   5) =     7.08997 eV ==== 
     psi = 0.312*[#   3]+0.312*[#   7]+0.157*[#   1]+0.157*[#   5]
    |psi|^2 = 0.938
==== e(   6) =     8.64512 eV ==== 
     psi = 0.146*[#   3]+0.146*[#   7]+0.131*[#   1]+0.131*[#   5]
    |psi|^2 = 0.554
==== e(   7) =    12.87866 eV ==== 
     psi = 0.342*[#   2]+0.331*[#   8]+0.082*[#   6]+0.071*[#   4]
    |psi|^2 = 0.825
==== e(   8) =    12.87866 eV ==== 
     psi = 0.342*[#   4]+0.331*[#   6]+0.082*[#   8]+0.071*[#   2]
    |psi|^2 = 0.825
==== e(   9) =    15.34342 eV ==== 
     psi = 0.135*[#   1]+0.135*[#   5]+0.084*[#   3]+0.084*[#   7]
    |psi|^2 = 0.438
==== e(  10) =    15.69883 eV ==== 

    |psi|^2 = 0.000
==== e(  11) =    18.70135 eV ==== 
     psi = 0.003*[#   1]+0.003*[#   5]
    |psi|^2 = 0.005
==== e(  12) =    19.69988 eV ==== 
     psi = 0.017*[#   4]+0.017*[#   6]+0.014*[#   8]+0.014*[#   2]
    |psi|^2 = 0.062

 k =  -0.6500000000  0.0000000000  0.0000000000
==== e(   1) =    -3.92234 eV ==== 
     psi = 0.319*[#   1]+0.319*[#   5]+0.178*[#   3]+0.178*[#   7]
    |psi|^2 = 0.994
==== e(   2) =     1.36249 eV ==== 
     psi = 0.255*[#   3]+0.255*[#   7]+0.239*[#   1]+0.239*[#   5]
    |psi|^2 = 0.990
==== e(   3) =     3.85447 eV ==== 
     psi = 0.457*[#   6]+0.444*[#   4]+0.053*[#   2]+0.039*[#   8]
    |psi|^2 = 0.993
==== e(   4) =     3.85447 eV ==== 
     psi = 0.457*[#   8]+0.444*[#   2]+0.053*[#   4]+0.039*[#   6]
    |psi|^2 = 0.993
==== e(   5) =     6.98557 eV ==== 
     psi = 0.302*[#   3]+0.302*[#   7]+0.164*[#   1]+0.164*[#   5]
    |psi|^2 = 0.932
==== e(   6) =     8.32349 eV ==== 
     psi = 0.158*[#   3]+0.158*[#   7]+0.136*[#   1]+0.136*[#   5]
    |psi|^2 = 0.589
==== e(   7) =    13.33580 eV ==== 
     psi = 0.352*[#   4]+0.334*[#   6]+0.067*[#   8]+0.049*[#   2]
    |psi|^2 = 0.802
==== e(   8) =    13.33580 eV ==== 
     psi = 0.352*[#   2]+0.334*[#   8]+0.067*[#   6]+0.049*[#   4]
    |psi|^2 = 0.802
==== e(   9) =    15.88095 eV ==== 
     psi = 0.122*[#   1]+0.122*[#   5]+0.079*[#   3]+0.079*[#   7]
    |psi|^2 = 0.402
==== e(  10) =    15.99972 eV ==== 

    |psi|^2 = 0.000
==== e(  11) =    19.17551 eV ==== 
     psi = 0.004*[#   1]+0.004*[#   5]
    |psi|^2 = 0.008
==== e(  12) =    19.73399 eV ==== 
     psi = 0.046*[#   6]+0.037*[#   4]+0.010*[#   2]+0.001*[#   8]
    |psi|^2 = 0.095

 k =  -0.7000000000  0.0000000000  0.0000000000
==== e(   1) =    -3.64055 eV ==== 
     psi = 0.311*[#   1]+0.311*[#   5]+0.186*[#   3]+0.186*[#   7]
    |psi|^2 = 0.994
==== e(   2) =     0.91879 eV ==== 
     psi = 0.249*[#   3]+0.249*[#   7]+0.246*[#   1]+0.246*[#   5]
    |psi|^2 = 0.991
==== e(   3) =     3.72862 eV ==== 
     psi = 0.383*[#   8]+0.340*[#   2]+0.157*[#   4]+0.114*[#   6]
    |psi|^2 = 0.993
==== e(   4) =     3.72862 eV ==== 
     psi = 0.383*[#   6]+0.340*[#   4]+0.157*[#   2]+0.114*[#   8]
    |psi|^2 = 0.993
==== e(   5) =     6.90315 eV ==== 
     psi = 0.293*[#   3]+0.293*[#   7]+0.169*[#   1]+0.169*[#   5]
    |psi|^2 = 0.925
==== e(   6) =     8.03146 eV ==== 
     psi = 0.172*[#   3]+0.172*[#   7]+0.142*[#   1]+0.142*[#   5]
    |psi|^2 = 0.628
==== e(   7) =    13.79830 eV ==== 
     psi = 0.341*[#   2]+0.298*[#   8]+0.091*[#   6]+0.048*[#   4]
    |psi|^2 = 0.778
==== e(   8) =    13.79830 eV ==== 
     psi = 0.341*[#   4]+0.298*[#   6]+0.091*[#   8]+0.048*[#   2]
    |psi|^2 = 0.778
==== e(   9) =    16.32429 eV ==== 

    |psi|^2 = 0.000
==== e(  10) =    16.41490 eV ==== 
     psi = 0.108*[#   1]+0.108*[#   5]+0.073*[#   3]+0.073*[#   7]
    |psi|^2 = 0.362
==== e(  11) =    19.56672 eV ==== 
     psi = 0.049*[#   6]+0.035*[#   4]+0.032*[#   2]+0.018*[#   8]
    |psi|^2 = 0.134
==== e(  12) =    19.56672 eV ==== 
     psi = 0.049*[#   8]+0.035*[#   2]+0.032*[#   4]+0.018*[#   6]
    |psi|^2 = 0.134

 k =  -0.7500000000  0.0000000000  0.0000000000
==== e(   1) =    -3.34045 eV ==== 
     psi = 0.304*[#   1]+0.304*[#   5]+0.193*[#   3]+0.193*[#   7]
    |psi|^2 = 0.994
==== e(   2) =     0.47993 eV ==== 
     psi = 0.253*[#   1]+0.253*[#   5]+0.243*[#   3]+0.243*[#   7]
    |psi|^2 = 0.991
==== e(   3) =     3.62144 eV ==== 
     psi = 0.279*[#   4]+0.259*[#   8]+0.238*[#   6]+0.217*[#   2]
    |psi|^2 = 0.994
==== e(   4) =     3.62144 eV ==== 
     psi = 0.279*[#   2]+0.259*[#   6]+0.238*[#   8]+0.217*[#   4]
    |psi|^2 = 0.994
==== e(   5) =     6.84412 eV ==== 
     psi = 0.285*[#   3]+0.285*[#   7]+0.173*[#   1]+0.173*[#   5]
    |psi|^2 = 0.916
==== e(   6) =     7.77059 eV ==== 
     psi = 0.185*[#   3]+0.185*[#   7]+0.149*[#   1]+0.149*[#   5]
    |psi|^2 = 0.669
==== e(   7) =    14.26543 eV ==== 
     psi = 0.301*[#   6]+0.271*[#   4]+0.106*[#   2]+0.076*[#   8]
    |psi|^2 = 0.754
==== e(   8) =    14.26543 eV ==== 
     psi = 0.301*[#   8]+0.271*[#   2]+0.106*[#   4]+0.076*[#   6]
    |psi|^2 = 0.754
==== e(   9) =    16.67244 eV ==== 

    |psi|^2 = 0.000
==== e(  10) =    16.94055 eV ==== 
     psi = 0.095*[#   1]+0.095*[#   5]+0.065*[#   3]+0.065*[#   7]
    |psi|^2 = 0.320
==== e(  11) =    19.23649 eV ==== 
     psi = 0.049*[#   8]+0.047*[#   2]+0.037*[#   4]+0.035*[#   6]
    |psi|^2 = 0.168
==== e(  12) =    19.23649 eV ==== 
     psi = 0.049*[#   6]+0.047*[#   4]+0.037*[#   2]+0.035*[#   8]
    |psi|^2 = 0.168

 k =  -0.8000000000  0.0000000000  0.0000000000
==== e(   1) =    -3.02269 eV ==== 
     psi = 0.297*[#   1]+0.297*[#   5]+0.199*[#   3]+0.199*[#   7]
    |psi|^2 = 0.994
==== e(   2) =     0.04738 eV ==== 
     psi = 0.258*[#   1]+0.258*[#   5]+0.238*[#   3]+0.238*[#   7]
    |psi|^2 = 0.992
==== e(   3) =     3.53330 eV ==== 
     psi = 0.282*[#   8]+0.252*[#   4]+0.245*[#   2]+0.215*[#   6]
    |psi|^2 = 0.994
==== e(   4) =     3.53330 eV ==== 
     psi = 0.282*[#   6]+0.252*[#   2]+0.245*[#   4]+0.215*[#   8]
    |psi|^2 = 0.994
==== e(   5) =     6.80972 eV ==== 
     psi = 0.277*[#   3]+0.277*[#   7]+0.176*[#   1]+0.176*[#   5]
    |psi|^2 = 0.906
==== e(   6) =     7.54150 eV ==== 
     psi = 0.199*[#   3]+0.199*[#   7]+0.156*[#   1]+0.156*[#   5]
    |psi|^2 = 0.709
==== e(   7) =    14.73593 eV ==== 
     psi = 0.353*[#   6]+0.345*[#   4]+0.022*[#   2]+0.014*[#   8]
    |psi|^2 = 0.734
==== e(   8) =    14.73593 eV ==== 
     psi = 0.353*[#   8]+0.345*[#   2]+0.022*[#   4]+0.014*[#   6]
    |psi|^2 = 0.734
==== e(   9) =    17.04402 eV ==== 

    |psi|^2 = 0.000
==== e(  10) =    17.45348 eV ==== 
     psi = 0.083*[#   1]+0.083*[#   5]+0.056*[#   3]+0.056*[#   7]
    |psi|^2 = 0.278
==== e(  11) =    18.81375 eV ==== 
     psi = 0.059*[#   2]+0.057*[#   6]+0.040*[#   8]+0.038*[#   4]
    |psi|^2 = 0.194
==== e(  12) =    18.81375 eV ==== 
     psi = 0.059*[#   4]+0.057*[#   8]+0.040*[#   6]+0.038*[#   2]
    |psi|^2 = 0.194

 k =  -0.8500000000  0.0000000000  0.0000000000
==== e(   1) =    -2.68802 eV ==== 
     psi = 0.292*[#   1]+0.292*[#   5]+0.205*[#   3]+0.205*[#   7]
    |psi|^2 = 0.993
==== e(   2) =    -0.37740 eV ==== 
     psi = 0.263*[#   1]+0.263*[#   5]+0.233*[#   3]+0.233*[#   7]
    |psi|^2 = 0.992
==== e(   3) =     3.46448 eV ==== 
     psi = 0.449*[#   6]+0.432*[#   4]+0.065*[#   2]+0.048*[#   8]
    |psi|^2 = 0.994
==== e(   4) =     3.46448 eV ==== 
     psi = 0.449*[#   8]+0.432*[#   2]+0.065*[#   4]+0.048*[#   6]
    |psi|^2 = 0.994
==== e(   5) =     6.80108 eV ==== 
     psi = 0.269*[#   3]+0.269*[#   7]+0.177*[#   1]+0.177*[#   5]
    |psi|^2 = 0.893
==== e(   6) =     7.34428 eV ==== 
     psi = 0.211*[#   3]+0.211*[#   7]+0.161*[#   1]+0.161*[#   5]
    |psi|^2 = 0.746
==== e(   7) =    15.20692 eV ==== 
     psi = 0.250*[#   2]+0.232*[#   8]+0.129*[#   6]+0.111*[#   4]
    |psi|^2 = 0.722
==== e(   8) =    15.20692 eV ==== 
     psi = 0.250*[#   4]+0.232*[#   6]+0.129*[#   8]+0.111*[#   2]
    |psi|^2 = 0.722
==== e(   9) =    17.43888 eV ==== 

    |psi|^2 = 0.000
==== e(  10) =    17.94949 eV ==== 
     psi = 0.071*[#   1]+0.071*[#   5]+0.048*[#   3]+0.048*[#   7]
    |psi|^2 = 0.237
==== e(  11) =    18.35010 eV ==== 
     psi = 0.094*[#   6]+0.079*[#   4]+0.025*[#   2]+0.009*[#   8]
    |psi|^2 = 0.207
==== e(  12) =    18.35010 eV ==== 
     psi = 0.094*[#   8]+0.079*[#   2]+0.025*[#   4]+0.009*[#   6]
    |psi|^2 = 0.207

 k =  -0.9000000000  0.0000000000  0.0000000000
==== e(   1) =    -2.33725 eV ==== 
     psi = 0.287*[#   1]+0.287*[#   5]+0.210*[#   3]+0.210*[#   7]
    |psi|^2 = 0.993
==== e(   2) =    -0.79299 eV ==== 
     psi = 0.268*[#   1]+0.268*[#   5]+0.228*[#   3]+0.228*[#   7]
    |psi|^2 = 0.992
==== e(   3) =     3.41519 eV ==== 
     psi = 0.295*[#   6]+0.279*[#   4]+0.218*[#   2]+0.202*[#   8]
    |psi|^2 = 0.994
==== e(   4) =     3.41519 eV ==== 
     psi = 0.295*[#   8]+0.279*[#   2]+0.218*[#   4]+0.202*[#   6]
    |psi|^2 = 0.994
==== e(   5) =     6.81925 eV ==== 
     psi = 0.261*[#   3]+0.261*[#   7]+0.177*[#   1]+0.177*[#   5]
    |psi|^2 = 0.877
==== e(   6) =     7.17865 eV ==== 
     psi = 0.223*[#   3]+0.223*[#   7]+0.167*[#   1]+0.167*[#   5]
    |psi|^2 = 0.780
==== e(   7) =    15.67018 eV ==== 
     psi = 0.246*[#   6]+0.230*[#   4]+0.136*[#   2]+0.121*[#   8]
    |psi|^2 = 0.733
==== e(   8) =    15.67018 eV ==== 
     psi = 0.246*[#   8]+0.230*[#   2]+0.136*[#   4]+0.121*[#   6]
    |psi|^2 = 0.733
==== e(   9) =    17.85690 eV ==== 

    |psi|^2 = 0.000
==== e(  10) =    17.87989 eV ==== 
     psi = 0.072*[#   8]+0.070*[#   2]+0.029*[#   4]+0.026*[#   6]
    |psi|^2 = 0.197
==== e(  11) =    17.87989 eV ==== 
     psi = 0.072*[#   6]+0.070*[#   4]+0.029*[#   2]+0.026*[#   8]
    |psi|^2 = 0.197
==== e(  12) =    18.42295 eV ==== 
     psi = 0.060*[#   1]+0.060*[#   5]+0.039*[#   3]+0.039*[#   7]
    |psi|^2 = 0.199

 k =  -0.9500000000  0.0000000000  0.0000000000
==== e(   1) =    -1.97131 eV ==== 
     psi = 0.282*[#   1]+0.282*[#   5]+0.214*[#   3]+0.214*[#   7]
    |psi|^2 = 0.993
==== e(   2) =    -1.19802 eV ==== 
     psi = 0.273*[#   1]+0.273*[#   5]+0.223*[#   3]+0.223*[#   7]
    |psi|^2 = 0.992
==== e(   3) =     3.38556 eV ==== 
     psi = 0.464*[#   8]+0.460*[#   2]+0.038*[#   4]+0.033*[#   6]
    |psi|^2 = 0.995
==== e(   4) =     3.38556 eV ==== 
     psi = 0.464*[#   6]+0.460*[#   4]+0.038*[#   2]+0.033*[#   8]
    |psi|^2 = 0.995
==== e(   5) =     6.86519 eV ==== 
     psi = 0.253*[#   3]+0.253*[#   7]+0.176*[#   1]+0.176*[#   5]
    |psi|^2 = 0.859
==== e(   6) =     7.04406 eV ==== 
     psi = 0.234*[#   3]+0.234*[#   7]+0.171*[#   1]+0.171*[#   5]
    |psi|^2 = 0.810
==== e(   7) =    16.09447 eV ==== 
     psi = 0.384*[#   8]+0.371*[#   2]+0.031*[#   4]+0.018*[#   6]
    |psi|^2 = 0.804
==== e(   8) =    16.09447 eV ==== 
     psi = 0.384*[#   6]+0.371*[#   4]+0.031*[#   2]+0.018*[#   8]
    |psi|^2 = 0.804
==== e(   9) =    17.44734 eV ==== 
     psi = 0.049*[#   6]+0.047*[#   4]+0.016*[#   2]+0.015*[#   8]
    |psi|^2 = 0.126
==== e(  10) =    17.44734 eV ==== 
     psi = 0.049*[#   8]+0.047*[#   2]+0.016*[#   4]+0.015*[#   6]
    |psi|^2 = 0.126
==== e(  11) =    18.29783 eV ==== 

    |psi|^2 = 0.000
==== e(  12) =    18.86683 eV ==== 
     psi = 0.050*[#   1]+0.050*[#   5]+0.032*[#   3]+0.032*[#   7]
    |psi|^2 = 0.164

 k =  -1.0000000000  0.0000000000  0.0000000000
==== e(   1) =    -1.59119 eV ==== 
     psi = 0.549*[#   1]+0.433*[#   7]+0.006*[#   5]+0.005*[#   3]
    |psi|^2 = 0.993
==== e(   2) =    -1.59119 eV ==== 
     psi = 0.549*[#   5]+0.433*[#   3]+0.006*[#   1]+0.005*[#   7]
    |psi|^2 = 0.993
==== e(   3) =     3.37568 eV ==== 
     psi = 0.341*[#   2]+0.341*[#   8]+0.156*[#   4]+0.156*[#   6]
    |psi|^2 = 0.995
==== e(   4) =     3.37568 eV ==== 
     psi = 0.341*[#   4]+0.341*[#   6]+0.156*[#   2]+0.156*[#   8]
    |psi|^2 = 0.995
==== e(   5) =     6.93984 eV ==== 
     psi = 0.245*[#   7]+0.243*[#   3]+0.175*[#   1]+0.174*[#   5]
    |psi|^2 = 0.836
==== e(   6) =     6.93984 eV ==== 
     psi = 0.245*[#   3]+0.243*[#   7]+0.175*[#   5]+0.174*[#   1]
    |psi|^2 = 0.836
==== e(   7) =    16.32058 eV ==== 
     psi = 0.299*[#   2]+0.299*[#   8]+0.164*[#   4]+0.164*[#   6]
    |psi|^2 = 0.925
==== e(   8) =    16.32058 eV ==== 
     psi = 0.299*[#   4]+0.299*[#   6]+0.164*[#   2]+0.164*[#   8]
    |psi|^2 = 0.925
==== e(   9) =    17.21791 eV ==== 
     psi = 0.002*[#   4]+0.002*[#   6]
    |psi|^2 = 0.005
==== e(  10) =    17.21791 eV ==== 
     psi = 0.002*[#   2]+0.002*[#   8]
    |psi|^2 = 0.005
==== e(  11) =    18.76152 eV ==== 

    |psi|^2 = 0.000
==== e(  12) =    18.76152 eV ==== 

    |psi|^2 = 0.000

 k =  -0.9875000000  0.0375000000  0.0000000000
==== e(   1) =    -1.68524 eV ==== 
     psi = 0.279*[#   1]+0.279*[#   5]+0.217*[#   3]+0.217*[#   7]
    |psi|^2 = 0.993
==== e(   2) =    -1.49222 eV ==== 
     psi = 0.277*[#   1]+0.277*[#   5]+0.219*[#   3]+0.219*[#   7]
    |psi|^2 = 0.993
==== e(   3) =     3.35715 eV ==== 
     psi = 0.249*[#   2]+0.249*[#   6]+0.246*[#   4]+0.246*[#   8]+0.002*[#   3]
          +0.002*[#   7]
    |psi|^2 = 0.994
==== e(   4) =     3.35801 eV ==== 
     psi = 0.248*[#   4]+0.248*[#   8]+0.246*[#   2]+0.246*[#   6]+0.002*[#   3]
          +0.002*[#   7]
    |psi|^2 = 0.994
==== e(   5) =     6.95291 eV ==== 
     psi = 0.245*[#   3]+0.245*[#   7]+0.173*[#   1]+0.173*[#   5]+0.002*[#   4]
          +0.002*[#   8]
    |psi|^2 = 0.841
==== e(   6) =     6.99706 eV ==== 
     psi = 0.240*[#   3]+0.240*[#   7]+0.172*[#   1]+0.172*[#   5]+0.002*[#   4]
          +0.002*[#   8]
    |psi|^2 = 0.829
==== e(   7) =    16.22970 eV ==== 
     psi = 0.226*[#   2]+0.226*[#   6]+0.211*[#   4]+0.211*[#   8]+0.002*[#   1]
          +0.002*[#   5]
    |psi|^2 = 0.878
==== e(   8) =    16.26457 eV ==== 
     psi = 0.230*[#   4]+0.230*[#   8]+0.225*[#   2]+0.225*[#   6]
    |psi|^2 = 0.912
==== e(   9) =    17.13790 eV ==== 
     psi = 0.003*[#   2]+0.003*[#   6]+0.001*[#   1]+0.001*[#   5]
    |psi|^2 = 0.011
==== e(  10) =    17.17506 eV ==== 
     psi = 0.018*[#   4]+0.018*[#   8]+0.004*[#   2]+0.004*[#   6]
    |psi|^2 = 0.047
==== e(  11) =    18.70587 eV ==== 
     psi = 0.002*[#   2]+0.002*[#   6]+0.001*[#   4]+0.001*[#   8]
    |psi|^2 = 0.010
==== e(  12) =    18.94420 eV ==== 
     psi = 0.002*[#   2]+0.002*[#   6]+0.001*[#   1]+0.001*[#   4]+0.001*[#   5]
          +0.001*[#   8]
    |psi|^2 = 0.010

 k =  -0.9750000000  0.0750000000  0.0000000000
==== e(   1) =    -1.77329 eV ==== 
     psi = 0.281*[#   1]+0.281*[#   5]+0.214*[#   3]+0.214*[#   7]+0.002*[#   2]
          +0.002*[#   6]
    |psi|^2 = 0.993
==== e(   2) =    -1.38966 eV ==== 
     psi = 0.276*[#   1]+0.276*[#   5]+0.218*[#   3]+0.218*[#   7]+0.002*[#   2]
          +0.002*[#   6]
    |psi|^2 = 0.993
==== e(   3) =     3.30252 eV ==== 
     psi = 0.246*[#   2]+0.246*[#   6]+0.240*[#   4]+0.240*[#   8]+0.009*[#   3]
          +0.009*[#   7]+0.002*[#   1]+0.002*[#   5]
    |psi|^2 = 0.994
==== e(   4) =     3.30917 eV ==== 
     psi = 0.245*[#   4]+0.245*[#   8]+0.242*[#   2]+0.242*[#   6]+0.009*[#   3]
          +0.009*[#   7]+0.002*[#   1]+0.002*[#   5]
    |psi|^2 = 0.994
==== e(   5) =     7.03516 eV ==== 
     psi = 0.242*[#   3]+0.242*[#   7]+0.170*[#   1]+0.170*[#   5]+0.007*[#   4]
          +0.007*[#   8]+0.003*[#   2]+0.003*[#   6]
    |psi|^2 = 0.843
==== e(   6) =     7.12075 eV ==== 
     psi = 0.232*[#   3]+0.232*[#   7]+0.167*[#   1]+0.167*[#   5]+0.007*[#   4]
          +0.007*[#   8]+0.002*[#   2]+0.002*[#   6]
    |psi|^2 = 0.819
==== e(   7) =    15.91849 eV ==== 
     psi = 0.197*[#   2]+0.197*[#   6]+0.168*[#   4]+0.168*[#   8]+0.006*[#   1]
          +0.006*[#   5]+0.001*[#   3]+0.001*[#   7]
    |psi|^2 = 0.744
==== e(   8) =    16.13430 eV ==== 
     psi = 0.223*[#   4]+0.223*[#   8]+0.221*[#   2]+0.221*[#   6]+0.004*[#   1]
          +0.004*[#   5]
    |psi|^2 = 0.896
==== e(   9) =    16.93142 eV ==== 
     psi = 0.003*[#   1]+0.003*[#   5]+0.002*[#   3]+0.002*[#   4]+0.002*[#   7]
          +0.002*[#   8]
    |psi|^2 = 0.017
==== e(  10) =    17.16112 eV ==== 
     psi = 0.055*[#   4]+0.055*[#   8]+0.028*[#   2]+0.028*[#   6]+0.002*[#   3]
          +0.002*[#   7]+0.001*[#   1]+0.001*[#   5]
    |psi|^2 = 0.173
==== e(  11) =    18.68317 eV ==== 
     psi = 0.007*[#   1]+0.007*[#   5]+0.005*[#   2]+0.005*[#   6]+0.004*[#   3]
          +0.004*[#   7]+0.002*[#   4]+0.002*[#   8]
    |psi|^2 = 0.035
==== e(  12) =    19.15152 eV ==== 
     psi = 0.008*[#   1]+0.008*[#   5]+0.004*[#   3]+0.004*[#   7]+0.004*[#   2]
          +0.004*[#   6]
    |psi|^2 = 0.033

 k =  -0.9625000000  0.1125000000  0.0000000000
==== e(   1) =    -1.85455 eV ==== 
     psi = 0.283*[#   1]+0.283*[#   5]+0.210*[#   3]+0.210*[#   7]+0.004*[#   2]
          +0.004*[#   6]
    |psi|^2 = 0.993
==== e(   2) =    -1.28520 eV ==== 
     psi = 0.276*[#   1]+0.276*[#   5]+0.215*[#   3]+0.215*[#   7]+0.005*[#   2]
          +0.005*[#   6]
    |psi|^2 = 0.993
==== e(   3) =     3.21659 eV ==== 
     psi = 0.243*[#   2]+0.243*[#   6]+0.232*[#   4]+0.232*[#   8]+0.018*[#   3]
          +0.018*[#   7]+0.005*[#   1]+0.005*[#   5]
    |psi|^2 = 0.994
==== e(   4) =     3.23791 eV ==== 
     psi = 0.239*[#   4]+0.239*[#   8]+0.236*[#   2]+0.236*[#   6]+0.018*[#   3]
          +0.018*[#   7]+0.003*[#   1]+0.003*[#   5]
    |psi|^2 = 0.994
==== e(   5) =     7.18095 eV ==== 
     psi = 0.237*[#   3]+0.237*[#   7]+0.164*[#   1]+0.164*[#   5]+0.015*[#   4]
          +0.015*[#   8]+0.006*[#   2]+0.006*[#   6]
    |psi|^2 = 0.842
==== e(   6) =     7.30359 eV ==== 
     psi = 0.223*[#   3]+0.223*[#   7]+0.161*[#   1]+0.161*[#   5]+0.014*[#   4]
          +0.014*[#   8]+0.004*[#   2]+0.004*[#   6]
    |psi|^2 = 0.805
==== e(   7) =    15.44539 eV ==== 
     psi = 0.173*[#   2]+0.173*[#   6]+0.135*[#   4]+0.135*[#   8]+0.013*[#   1]
          +0.013*[#   5]+0.003*[#   3]+0.003*[#   7]
    |psi|^2 = 0.646
==== e(   8) =    15.94832 eV ==== 
     psi = 0.215*[#   2]+0.215*[#   6]+0.208*[#   4]+0.208*[#   8]+0.008*[#   1]
          +0.008*[#   5]
    |psi|^2 = 0.862
==== e(   9) =    16.68225 eV ==== 
     psi = 0.014*[#   4]+0.014*[#   8]+0.004*[#   3]+0.004*[#   7]+0.004*[#   1]
          +0.004*[#   5]+0.002*[#   2]+0.002*[#   6]
    |psi|^2 = 0.046
==== e(  10) =    17.21851 eV ==== 
     psi = 0.081*[#   4]+0.081*[#   8]+0.047*[#   2]+0.047*[#   6]+0.004*[#   3]
          +0.004*[#   7]+0.001*[#   1]+0.001*[#   5]
    |psi|^2 = 0.266
==== e(  11) =    18.63064 eV ==== 
     psi = 0.014*[#   1]+0.014*[#   5]+0.008*[#   3]+0.008*[#   7]+0.007*[#   2]
          +0.007*[#   6]+0.002*[#   4]+0.002*[#   8]
    |psi|^2 = 0.061
==== e(  12) =    19.31476 eV ==== 
     psi = 0.013*[#   1]+0.013*[#   5]+0.007*[#   3]+0.007*[#   7]+0.004*[#   2]
          +0.004*[#   6]
    |psi|^2 = 0.048

 k =  -0.9500000000  0.1500000000  0.0000000000
==== e(   1) =    -1.92837 eV ==== 
     psi = 0.285*[#   1]+0.285*[#   5]+0.204*[#   3]+0.204*[#   7]+0.007*[#   2]
          +0.007*[#   6]
    |psi|^2 = 0.993
==== e(   2) =    -1.18092 eV ==== 
     psi = 0.276*[#   1]+0.276*[#   5]+0.211*[#   3]+0.211*[#   7]+0.009*[#   2]
          +0.009*[#   6]
    |psi|^2 = 0.993
==== e(   3) =     3.10684 eV ==== 
     psi = 0.239*[#   2]+0.239*[#   6]+0.222*[#   4]+0.222*[#   8]+0.028*[#   3]
          +0.028*[#   7]+0.007*[#   1]+0.007*[#   5]
    |psi|^2 = 0.994
==== e(   4) =     3.15450 eV ==== 
     psi = 0.233*[#   4]+0.233*[#   8]+0.230*[#   2]+0.230*[#   6]+0.030*[#   3]
          +0.030*[#   7]+0.004*[#   1]+0.004*[#   5]
    |psi|^2 = 0.994
==== e(   5) =     7.38206 eV ==== 
     psi = 0.231*[#   3]+0.231*[#   7]+0.156*[#   1]+0.156*[#   5]+0.024*[#   4]
          +0.024*[#   8]+0.009*[#   2]+0.009*[#   6]
    |psi|^2 = 0.839
==== e(   6) =     7.53701 eV ==== 
     psi = 0.212*[#   3]+0.212*[#   7]+0.154*[#   1]+0.154*[#   5]+0.023*[#   4]
          +0.023*[#   8]+0.006*[#   2]+0.006*[#   6]
    |psi|^2 = 0.789
==== e(   7) =    14.89758 eV ==== 
[...]
    |psi|^2 = 0.899
==== e(   6) =    10.04540 eV ==== 
     psi = 0.234*[#   3]+0.234*[#   4]+0.234*[#   7]+0.234*[#   8]
    |psi|^2 = 0.937
==== e(   7) =    10.36089 eV ==== 
     psi = 0.182*[#   2]+0.182*[#   6]+0.080*[#   1]+0.080*[#   5]+0.074*[#   3]
          +0.074*[#   4]+0.074*[#   7]+0.074*[#   8]
    |psi|^2 = 0.821
==== e(   8) =    11.92235 eV ==== 
     psi = 0.140*[#   1]+0.140*[#   5]+0.087*[#   3]+0.087*[#   4]+0.087*[#   7]
          +0.087*[#   8]+0.002*[#   2]+0.002*[#   6]
    |psi|^2 = 0.633
==== e(   9) =    12.33260 eV ==== 

    |psi|^2 = 0.000
==== e(  10) =    16.47246 eV ==== 
     psi = 0.051*[#   1]+0.051*[#   5]+0.041*[#   3]+0.041*[#   4]+0.041*[#   7]
          +0.041*[#   8]+0.036*[#   2]+0.036*[#   6]
    |psi|^2 = 0.337
==== e(  11) =    16.92305 eV ==== 
     psi = 0.025*[#   2]+0.025*[#   6]+0.008*[#   1]+0.008*[#   5]+0.001*[#   3]
          +0.001*[#   4]+0.001*[#   7]+0.001*[#   8]
    |psi|^2 = 0.071
==== e(  12) =    17.97553 eV ==== 
     psi = 0.003*[#   1]+0.003*[#   5]
    |psi|^2 = 0.008

 k =  -0.3375000000  0.3375000000  0.0000000000
==== e(   1) =    -4.76174 eV ==== 
     psi = 0.365*[#   1]+0.365*[#   5]+0.064*[#   3]+0.064*[#   4]+0.064*[#   7]
          +0.064*[#   8]+0.004*[#   2]+0.004*[#   6]
    |psi|^2 = 0.995
==== e(   2) =     2.45931 eV ==== 
     psi = 0.166*[#   1]+0.166*[#   5]+0.110*[#   2]+0.110*[#   6]+0.109*[#   3]
          +0.109*[#   4]+0.109*[#   7]+0.109*[#   8]
    |psi|^2 = 0.987
==== e(   3) =     3.77768 eV ==== 
     psi = 0.269*[#   2]+0.269*[#   6]+0.092*[#   3]+0.092*[#   4]+0.092*[#   7]
          +0.092*[#   8]+0.041*[#   1]+0.041*[#   5]
    |psi|^2 = 0.987
==== e(   4) =     5.64826 eV ==== 
     psi = 0.245*[#   3]+0.245*[#   4]+0.245*[#   7]+0.245*[#   8]
    |psi|^2 = 0.982
==== e(   5) =     9.25716 eV ==== 
     psi = 0.318*[#   2]+0.318*[#   6]+0.137*[#   1]+0.137*[#   5]+0.003*[#   3]
          +0.003*[#   4]+0.003*[#   7]+0.003*[#   8]
    |psi|^2 = 0.920
==== e(   6) =     9.80739 eV ==== 
     psi = 0.236*[#   3]+0.236*[#   4]+0.236*[#   7]+0.236*[#   8]
    |psi|^2 = 0.943
==== e(   7) =    10.10519 eV ==== 
     psi = 0.184*[#   2]+0.184*[#   6]+0.083*[#   3]+0.083*[#   4]+0.083*[#   7]
          +0.083*[#   8]+0.077*[#   1]+0.077*[#   5]
    |psi|^2 = 0.852
==== e(   8) =    11.89187 eV ==== 
     psi = 0.137*[#   1]+0.137*[#   5]+0.087*[#   3]+0.087*[#   4]+0.087*[#   7]
          +0.087*[#   8]+0.007*[#   2]+0.007*[#   6]
    |psi|^2 = 0.635
==== e(   9) =    12.34170 eV ==== 

    |psi|^2 = 0.000
==== e(  10) =    15.69924 eV ==== 
     psi = 0.054*[#   1]+0.054*[#   5]+0.037*[#   2]+0.037*[#   6]+0.036*[#   3]
          +0.036*[#   4]+0.036*[#   7]+0.036*[#   8]
    |psi|^2 = 0.326
==== e(  11) =    16.74456 eV ==== 
     psi = 0.016*[#   2]+0.016*[#   6]+0.005*[#   1]+0.005*[#   5]
    |psi|^2 = 0.045
==== e(  12) =    17.76118 eV ==== 
     psi = 0.003*[#   1]+0.003*[#   5]
    |psi|^2 = 0.008

 k =  -0.3000000000  0.3000000000  0.0000000000
==== e(   1) =    -4.96117 eV ==== 
     psi = 0.379*[#   1]+0.379*[#   5]+0.058*[#   3]+0.058*[#   4]+0.058*[#   7]
          +0.058*[#   8]+0.002*[#   2]+0.002*[#   6]
    |psi|^2 = 0.995
==== e(   2) =     2.91181 eV ==== 
     psi = 0.154*[#   1]+0.154*[#   5]+0.118*[#   3]+0.118*[#   4]+0.118*[#   7]
          +0.118*[#   8]+0.102*[#   2]+0.102*[#   6]
    |psi|^2 = 0.986
==== e(   3) =     4.12605 eV ==== 
     psi = 0.280*[#   2]+0.280*[#   6]+0.088*[#   3]+0.088*[#   4]+0.088*[#   7]
          +0.088*[#   8]+0.037*[#   1]+0.037*[#   5]
    |psi|^2 = 0.986
==== e(   4) =     5.78501 eV ==== 
     psi = 0.245*[#   3]+0.245*[#   4]+0.245*[#   7]+0.245*[#   8]
    |psi|^2 = 0.979
==== e(   5) =     9.28242 eV ==== 
     psi = 0.320*[#   2]+0.320*[#   6]+0.145*[#   1]+0.145*[#   5]+0.002*[#   3]
          +0.002*[#   4]+0.002*[#   7]+0.002*[#   8]
    |psi|^2 = 0.937
==== e(   6) =     9.59397 eV ==== 
     psi = 0.237*[#   3]+0.237*[#   4]+0.237*[#   7]+0.237*[#   8]
    |psi|^2 = 0.948
==== e(   7) =     9.87039 eV ==== 
     psi = 0.181*[#   2]+0.181*[#   6]+0.093*[#   3]+0.093*[#   4]+0.093*[#   7]
          +0.093*[#   8]+0.071*[#   1]+0.071*[#   5]
    |psi|^2 = 0.878
==== e(   8) =    11.87498 eV ==== 
     psi = 0.142*[#   1]+0.142*[#   5]+0.088*[#   3]+0.088*[#   4]+0.088*[#   7]
          +0.088*[#   8]+0.017*[#   2]+0.017*[#   6]
    |psi|^2 = 0.670
==== e(   9) =    12.40773 eV ==== 

    |psi|^2 = 0.001
==== e(  10) =    14.99966 eV ==== 
     psi = 0.052*[#   1]+0.052*[#   5]+0.034*[#   2]+0.034*[#   6]+0.028*[#   3]
          +0.028*[#   4]+0.028*[#   7]+0.028*[#   8]
    |psi|^2 = 0.286
==== e(  11) =    16.46238 eV ==== 
     psi = 0.011*[#   2]+0.011*[#   6]+0.003*[#   1]+0.003*[#   5]
    |psi|^2 = 0.029
==== e(  12) =    17.58672 eV ==== 
     psi = 0.003*[#   1]+0.003*[#   5]
    |psi|^2 = 0.008

 k =  -0.2625000000  0.2625000000  0.0000000000
==== e(   1) =    -5.13934 eV ==== 
     psi = 0.394*[#   1]+0.394*[#   5]+0.051*[#   3]+0.051*[#   4]+0.051*[#   7]
          +0.051*[#   8]+0.001*[#   2]+0.001*[#   6]
    |psi|^2 = 0.995
==== e(   2) =     3.38214 eV ==== 
     psi = 0.141*[#   1]+0.141*[#   5]+0.128*[#   3]+0.128*[#   4]+0.128*[#   7]
          +0.128*[#   8]+0.094*[#   2]+0.094*[#   6]
    |psi|^2 = 0.984
==== e(   3) =     4.48127 eV ==== 
     psi = 0.294*[#   2]+0.294*[#   6]+0.083*[#   3]+0.083*[#   4]+0.083*[#   7]
          +0.083*[#   8]+0.031*[#   1]+0.031*[#   5]
    |psi|^2 = 0.984
==== e(   4) =     5.90239 eV ==== 
     psi = 0.244*[#   3]+0.244*[#   4]+0.244*[#   7]+0.244*[#   8]
    |psi|^2 = 0.976
==== e(   5) =     9.27195 eV ==== 
     psi = 0.323*[#   2]+0.323*[#   6]+0.149*[#   1]+0.149*[#   5]+0.001*[#   3]
          +0.001*[#   4]+0.001*[#   7]+0.001*[#   8]
    |psi|^2 = 0.949
==== e(   6) =     9.40533 eV ==== 
     psi = 0.238*[#   3]+0.238*[#   4]+0.238*[#   7]+0.238*[#   8]
    |psi|^2 = 0.953
==== e(   7) =     9.65586 eV ==== 
     psi = 0.173*[#   2]+0.173*[#   6]+0.106*[#   3]+0.106*[#   4]+0.106*[#   7]
          +0.106*[#   8]+0.064*[#   1]+0.064*[#   5]
    |psi|^2 = 0.898
==== e(   8) =    11.81422 eV ==== 
     psi = 0.161*[#   1]+0.161*[#   5]+0.091*[#   3]+0.091*[#   4]+0.091*[#   7]
          +0.091*[#   8]+0.031*[#   2]+0.031*[#   6]
    |psi|^2 = 0.748
==== e(   9) =    12.52997 eV ==== 

    |psi|^2 = 0.002
==== e(  10) =    14.42066 eV ==== 
     psi = 0.042*[#   1]+0.042*[#   5]+0.027*[#   2]+0.027*[#   6]+0.017*[#   3]
          +0.017*[#   4]+0.017*[#   7]+0.017*[#   8]
    |psi|^2 = 0.208
==== e(  11) =    16.11750 eV ==== 
     psi = 0.007*[#   2]+0.007*[#   6]+0.002*[#   1]+0.002*[#   5]
    |psi|^2 = 0.020
==== e(  12) =    17.45399 eV ==== 
     psi = 0.003*[#   1]+0.003*[#   5]
    |psi|^2 = 0.009

 k =  -0.2250000000  0.2250000000  0.0000000000
==== e(   1) =    -5.29530 eV ==== 
     psi = 0.412*[#   1]+0.412*[#   5]+0.043*[#   3]+0.043*[#   4]+0.043*[#   7]
          +0.043*[#   8]
    |psi|^2 = 0.996
==== e(   2) =     3.86713 eV ==== 
     psi = 0.139*[#   3]+0.139*[#   4]+0.139*[#   7]+0.139*[#   8]+0.126*[#   1]
          +0.126*[#   5]+0.086*[#   2]+0.086*[#   6]
    |psi|^2 = 0.982
==== e(   3) =     4.83621 eV ==== 
     psi = 0.313*[#   2]+0.313*[#   6]+0.077*[#   3]+0.077*[#   4]+0.077*[#   7]
          +0.077*[#   8]+0.024*[#   1]+0.024*[#   5]
    |psi|^2 = 0.982
==== e(   4) =     5.99963 eV ==== 
     psi = 0.243*[#   3]+0.243*[#   4]+0.243*[#   7]+0.243*[#   8]
    |psi|^2 = 0.973
==== e(   5) =     9.23653 eV ==== 
     psi = 0.328*[#   2]+0.328*[#   6]+0.147*[#   1]+0.147*[#   5]+0.001*[#   3]
          +0.001*[#   4]+0.001*[#   7]+0.001*[#   8]
    |psi|^2 = 0.956
==== e(   6) =     9.24160 eV ==== 
     psi = 0.239*[#   3]+0.239*[#   4]+0.239*[#   7]+0.239*[#   8]
    |psi|^2 = 0.957
==== e(   7) =     9.46087 eV ==== 
     psi = 0.158*[#   2]+0.158*[#   6]+0.121*[#   3]+0.121*[#   4]+0.121*[#   7]
          +0.121*[#   8]+0.056*[#   1]+0.056*[#   5]
    |psi|^2 = 0.915
==== e(   8) =    11.63154 eV ==== 
     psi = 0.194*[#   1]+0.194*[#   5]+0.092*[#   3]+0.092*[#   4]+0.092*[#   7]
          +0.092*[#   8]+0.047*[#   2]+0.047*[#   6]
    |psi|^2 = 0.851
==== e(   9) =    12.70492 eV ==== 

    |psi|^2 = 0.003
==== e(  10) =    14.02504 eV ==== 
     psi = 0.025*[#   1]+0.025*[#   5]+0.016*[#   2]+0.016*[#   6]+0.006*[#   3]
          +0.006*[#   4]+0.006*[#   7]+0.006*[#   8]
    |psi|^2 = 0.108
==== e(  11) =    15.73742 eV ==== 
     psi = 0.005*[#   2]+0.005*[#   6]+0.002*[#   1]+0.002*[#   5]
    |psi|^2 = 0.013
==== e(  12) =    17.36531 eV ==== 
     psi = 0.003*[#   1]+0.003*[#   5]+0.001*[#   3]+0.001*[#   4]+0.001*[#   7]
          +0.001*[#   8]
    |psi|^2 = 0.011

 k =  -0.1875000000  0.1875000000  0.0000000000
==== e(   1) =    -5.42832 eV ==== 
     psi = 0.431*[#   1]+0.431*[#   5]+0.033*[#   3]+0.033*[#   4]+0.033*[#   7]
          +0.033*[#   8]
    |psi|^2 = 0.996
==== e(   2) =     4.36173 eV ==== 
     psi = 0.152*[#   3]+0.152*[#   4]+0.152*[#   7]+0.152*[#   8]+0.110*[#   1]
          +0.110*[#   5]+0.077*[#   2]+0.077*[#   6]
    |psi|^2 = 0.979
==== e(   3) =     5.18178 eV ==== 
     psi = 0.337*[#   2]+0.337*[#   6]+0.068*[#   3]+0.068*[#   4]+0.068*[#   7]
          +0.068*[#   8]+0.016*[#   1]+0.016*[#   5]
    |psi|^2 = 0.979
==== e(   4) =     6.07721 eV ==== 
     psi = 0.243*[#   3]+0.243*[#   4]+0.243*[#   7]+0.243*[#   8]
    |psi|^2 = 0.970
==== e(   5) =     9.10289 eV ==== 
     psi = 0.240*[#   3]+0.240*[#   4]+0.240*[#   7]+0.240*[#   8]
    |psi|^2 = 0.960
==== e(   6) =     9.18563 eV ==== 
     psi = 0.338*[#   2]+0.338*[#   6]+0.139*[#   1]+0.139*[#   5]+0.002*[#   3]
          +0.002*[#   4]+0.002*[#   7]+0.002*[#   8]
    |psi|^2 = 0.960
==== e(   7) =     9.28491 eV ==== 
     psi = 0.140*[#   3]+0.140*[#   4]+0.140*[#   7]+0.140*[#   8]+0.138*[#   2]
          +0.138*[#   6]+0.047*[#   1]+0.047*[#   5]
    |psi|^2 = 0.928
==== e(   8) =    11.28685 eV ==== 
     psi = 0.234*[#   1]+0.234*[#   5]+0.086*[#   3]+0.086*[#   4]+0.086*[#   7]
          +0.086*[#   8]+0.058*[#   2]+0.058*[#   6]
    |psi|^2 = 0.926
==== e(   9) =    12.92551 eV ==== 

    |psi|^2 = 0.003
==== e(  10) =    13.83910 eV ==== 
     psi = 0.011*[#   1]+0.011*[#   5]+0.006*[#   2]+0.006*[#   6]+0.001*[#   3]
          +0.001*[#   4]+0.001*[#   7]+0.001*[#   8]
    |psi|^2 = 0.038
==== e(  11) =    15.34890 eV ==== 
     psi = 0.003*[#   2]+0.003*[#   6]+0.002*[#   1]+0.002*[#   5]
    |psi|^2 = 0.009
==== e(  12) =    17.32207 eV ==== 
     psi = 0.002*[#   1]+0.002*[#   5]+0.002*[#   3]+0.002*[#   4]+0.002*[#   7]
          +0.002*[#   8]
    |psi|^2 = 0.013

 k =  -0.1500000000  0.1500000000  0.0000000000
==== e(   1) =    -5.53784 eV ==== 
     psi = 0.450*[#   1]+0.450*[#   5]+0.024*[#   3]+0.024*[#   4]+0.024*[#   7]
          +0.024*[#   8]
    |psi|^2 = 0.996
==== e(   2) =     4.85732 eV ==== 
     psi = 0.166*[#   3]+0.166*[#   4]+0.166*[#   7]+0.166*[#   8]+0.090*[#   1]
          +0.090*[#   5]+0.066*[#   2]+0.066*[#   6]
    |psi|^2 = 0.976
==== e(   3) =     5.50612 eV ==== 
     psi = 0.367*[#   2]+0.367*[#   6]+0.055*[#   3]+0.055*[#   4]+0.055*[#   7]
          +0.055*[#   8]+0.009*[#   1]+0.009*[#   5]
    |psi|^2 = 0.975
==== e(   4) =     6.13659 eV ==== 
     psi = 0.242*[#   3]+0.242*[#   4]+0.242*[#   7]+0.242*[#   8]
    |psi|^2 = 0.967
==== e(   5) =     8.98928 eV ==== 
     psi = 0.241*[#   3]+0.241*[#   4]+0.241*[#   7]+0.241*[#   8]
    |psi|^2 = 0.962
==== e(   6) =     9.12474 eV ==== 
     psi = 0.355*[#   2]+0.355*[#   6]+0.120*[#   1]+0.120*[#   5]+0.003*[#   3]
          +0.003*[#   4]+0.003*[#   7]+0.003*[#   8]
    |psi|^2 = 0.962
==== e(   7) =     9.12827 eV ==== 
     psi = 0.162*[#   3]+0.162*[#   4]+0.162*[#   7]+0.162*[#   8]+0.110*[#   2]
          +0.110*[#   6]+0.036*[#   1]+0.036*[#   5]
    |psi|^2 = 0.940
==== e(   8) =    10.82904 eV ==== 
     psi = 0.279*[#   1]+0.279*[#   5]+0.071*[#   3]+0.071*[#   4]+0.071*[#   7]
          +0.071*[#   8]+0.058*[#   2]+0.058*[#   6]
    |psi|^2 = 0.960
==== e(   9) =    13.17974 eV ==== 

    |psi|^2 = 0.004
==== e(  10) =    13.80671 eV ==== 
     psi = 0.003*[#   1]+0.003*[#   5]+0.002*[#   2]+0.002*[#   6]
    |psi|^2 = 0.011
==== e(  11) =    14.97997 eV ==== 
     psi = 0.002*[#   1]+0.002*[#   5]+0.001*[#   2]+0.001*[#   6]
    |psi|^2 = 0.006
==== e(  12) =    17.32260 eV ==== 
     psi = 0.003*[#   3]+0.003*[#   4]+0.003*[#   7]+0.003*[#   8]+0.002*[#   1]
          +0.002*[#   5]
    |psi|^2 = 0.016

 k =  -0.1125000000  0.1125000000  0.0000000000
==== e(   1) =    -5.62342 eV ==== 
     psi = 0.469*[#   1]+0.469*[#   5]+0.015*[#   3]+0.015*[#   4]+0.015*[#   7]
          +0.015*[#   8]
    |psi|^2 = 0.996
==== e(   2) =     5.33812 eV ==== 
     psi = 0.184*[#   3]+0.184*[#   4]+0.184*[#   7]+0.184*[#   8]+0.067*[#   1]
          +0.067*[#   5]+0.051*[#   2]+0.051*[#   6]
    |psi|^2 = 0.972
==== e(   3) =     5.79372 eV ==== 
     psi = 0.403*[#   2]+0.403*[#   6]+0.039*[#   3]+0.039*[#   4]+0.039*[#   7]
          +0.039*[#   8]+0.004*[#   1]+0.004*[#   5]
    |psi|^2 = 0.971
==== e(   4) =     6.17976 eV ==== 
     psi = 0.241*[#   3]+0.241*[#   4]+0.241*[#   7]+0.241*[#   8]
    |psi|^2 = 0.965
==== e(   5) =     8.90085 eV ==== 
     psi = 0.241*[#   3]+0.241*[#   4]+0.241*[#   7]+0.241*[#   8]
    |psi|^2 = 0.964
==== e(   6) =     8.99309 eV ==== 
     psi = 0.187*[#   3]+0.187*[#   4]+0.187*[#   7]+0.187*[#   8]+0.076*[#   2]
          +0.076*[#   6]+0.024*[#   1]+0.024*[#   5]
    |psi|^2 = 0.950
==== e(   7) =     9.05274 eV ==== 
     psi = 0.384*[#   2]+0.384*[#   6]+0.087*[#   1]+0.087*[#   5]+0.005*[#   3]
          +0.005*[#   4]+0.005*[#   7]+0.005*[#   8]
    |psi|^2 = 0.963
==== e(   8) =    10.34681 eV ==== 
     psi = 0.338*[#   1]+0.338*[#   5]+0.052*[#   3]+0.052*[#   4]+0.052*[#   7]
          +0.052*[#   8]+0.045*[#   2]+0.045*[#   6]
    |psi|^2 = 0.973
==== e(   9) =    13.44816 eV ==== 

    |psi|^2 = 0.003
==== e(  10) =    13.84623 eV ==== 

    |psi|^2 = 0.003
==== e(  11) =    14.65790 eV ==== 
     psi = 0.002*[#   1]+0.002*[#   5]
    |psi|^2 = 0.004
==== e(  12) =    17.35914 eV ==== 
     psi = 0.004*[#   3]+0.004*[#   4]+0.004*[#   7]+0.004*[#   8]+0.001*[#   1]
          +0.001*[#   5]
    |psi|^2 = 0.019

 k =  -0.0750000000  0.0750000000  0.0000000000
==== e(   1) =    -5.68476 eV ==== 
     psi = 0.484*[#   1]+0.484*[#   5]+0.007*[#   3]+0.007*[#   4]+0.007*[#   7]
          +0.007*[#   8]
    |psi|^2 = 0.996
==== e(   2) =     5.77325 eV ==== 
     psi = 0.206*[#   3]+0.206*[#   4]+0.206*[#   7]+0.206*[#   8]+0.040*[#   1]
          +0.040*[#   5]+0.033*[#   2]+0.033*[#   6]
    |psi|^2 = 0.968
==== e(   3) =     6.02494 eV ==== 
     psi = 0.439*[#   2]+0.439*[#   6]+0.021*[#   3]+0.021*[#   4]+0.021*[#   7]
          +0.021*[#   8]+0.001*[#   1]+0.001*[#   5]
    |psi|^2 = 0.967
==== e(   4) =     6.20879 eV ==== 
     psi = 0.241*[#   3]+0.241*[#   4]+0.241*[#   7]+0.241*[#   8]
    |psi|^2 = 0.963
==== e(   5) =     8.83765 eV ==== 
     psi = 0.241*[#   3]+0.241*[#   4]+0.241*[#   7]+0.241*[#   8]
    |psi|^2 = 0.965
==== e(   6) =     8.88480 eV ==== 
     psi = 0.213*[#   3]+0.213*[#   4]+0.213*[#   7]+0.213*[#   8]+0.041*[#   2]
          +0.041*[#   6]+0.012*[#   1]+0.012*[#   5]
    |psi|^2 = 0.958
==== e(   7) =     8.96008 eV ==== 
     psi = 0.428*[#   2]+0.428*[#   6]+0.040*[#   1]+0.040*[#   5]+0.007*[#   3]
          +0.007*[#   4]+0.007*[#   7]+0.007*[#   8]
    |psi|^2 = 0.963
==== e(   8) =     9.92879 eV ==== 
     psi = 0.413*[#   1]+0.413*[#   5]+0.028*[#   3]+0.028*[#   4]+0.028*[#   7]
          +0.028*[#   8]+0.021*[#   2]+0.021*[#   6]
    |psi|^2 = 0.981
==== e(   9) =    13.69972 eV ==== 

    |psi|^2 = 0.002
==== e(  10) =    13.90187 eV ==== 

    |psi|^2 = 0.001
==== e(  11) =    14.40721 eV ==== 
     psi = 0.002*[#   1]+0.002*[#   5]
    |psi|^2 = 0.003
==== e(  12) =    17.41518 eV ==== 
     psi = 0.005*[#   3]+0.005*[#   4]+0.005*[#   7]+0.005*[#   8]
    |psi|^2 = 0.022

 k =  -0.0375000000  0.0375000000  0.0000000000
==== e(   1) =    -5.72164 eV ==== 
     psi = 0.494*[#   1]+0.494*[#   5]+0.002*[#   3]+0.002*[#   4]+0.002*[#   7]
          +0.002*[#   8]
    |psi|^2 = 0.996
==== e(   2) =     6.10216 eV ==== 
     psi = 0.229*[#   3]+0.229*[#   4]+0.229*[#   7]+0.229*[#   8]+0.013*[#   1]
          +0.013*[#   5]+0.011*[#   2]+0.011*[#   6]
    |psi|^2 = 0.964
==== e(   3) =     6.17729 eV ==== 
     psi = 0.469*[#   2]+0.469*[#   6]+0.006*[#   3]+0.006*[#   4]+0.006*[#   7]
          +0.006*[#   8]
    |psi|^2 = 0.963
==== e(   4) =     6.22543 eV ==== 
     psi = 0.240*[#   3]+0.240*[#   4]+0.240*[#   7]+0.240*[#   8]
    |psi|^2 = 0.962
==== e(   5) =     8.79973 eV ==== 
     psi = 0.241*[#   3]+0.241*[#   4]+0.241*[#   7]+0.241*[#   8]
    |psi|^2 = 0.966
==== e(   6) =     8.81270 eV ==== 
     psi = 0.234*[#   3]+0.234*[#   4]+0.234*[#   7]+0.234*[#   8]+0.012*[#   2]
          +0.012*[#   6]+0.003*[#   1]+0.003*[#   5]
    |psi|^2 = 0.964
==== e(   7) =     8.84770 eV ==== 
     psi = 0.469*[#   2]+0.469*[#   6]+0.004*[#   1]+0.004*[#   5]+0.004*[#   3]
          +0.004*[#   4]+0.004*[#   7]+0.004*[#   8]
    |psi|^2 = 0.965
==== e(   8) =     9.65952 eV ==== 
     psi = 0.475*[#   1]+0.475*[#   5]+0.007*[#   3]+0.007*[#   4]+0.007*[#   7]
          +0.007*[#   8]+0.002*[#   2]+0.002*[#   6]
    |psi|^2 = 0.985
==== e(   9) =    13.88793 eV ==== 

    |psi|^2 = 0.001
==== e(  10) =    13.94409 eV ==== 

    |psi|^2 = 0.000
==== e(  11) =    14.24789 eV ==== 
     psi = 0.001*[#   1]+0.001*[#   5]
    |psi|^2 = 0.003
==== e(  12) =    17.46598 eV ==== 
     psi = 0.006*[#   3]+0.006*[#   4]+0.006*[#   7]+0.006*[#   8]
    |psi|^2 = 0.024

 k =   0.0000000000  0.0000000000  0.0000000000
==== e(   1) =    -5.73395 eV ==== 
     psi = 0.498*[#   1]+0.498*[#   5]
    |psi|^2 = 0.996
==== e(   2) =     6.23084 eV ==== 
     psi = 0.242*[#   4]+0.242*[#   8]+0.120*[#   2]+0.120*[#   6]+0.119*[#   3]
          +0.119*[#   7]
    |psi|^2 = 0.961
==== e(   3) =     6.23084 eV ==== 
     psi = 0.237*[#   2]+0.237*[#   6]+0.204*[#   4]+0.204*[#   8]+0.040*[#   3]
          +0.040*[#   7]
    |psi|^2 = 0.961
==== e(   4) =     6.23084 eV ==== 
     psi = 0.322*[#   3]+0.322*[#   7]+0.124*[#   2]+0.124*[#   6]+0.035*[#   4]
          +0.035*[#   8]
    |psi|^2 = 0.961
==== e(   5) =     8.78710 eV ==== 
     psi = 0.280*[#   4]+0.280*[#   8]+0.110*[#   3]+0.110*[#   7]+0.093*[#   2]
          +0.093*[#   6]
    |psi|^2 = 0.966
==== e(   6) =     8.78710 eV ==== 
     psi = 0.287*[#   3]+0.287*[#   7]+0.156*[#   4]+0.156*[#   8]+0.041*[#   2]
          +0.041*[#   6]
    |psi|^2 = 0.966
==== e(   7) =     8.78710 eV ==== 
     psi = 0.349*[#   2]+0.349*[#   6]+0.087*[#   3]+0.087*[#   7]+0.047*[#   4]
          +0.047*[#   8]
    |psi|^2 = 0.966
==== e(   8) =     9.57283 eV ==== 
     psi = 0.493*[#   1]+0.493*[#   5]
    |psi|^2 = 0.986
==== e(   9) =    13.95944 eV ==== 

    |psi|^2 = 0.000
==== e(  10) =    13.95944 eV ==== 

    |psi|^2 = 0.000
==== e(  11) =    14.19324 eV ==== 
     psi = 0.001*[#   1]+0.001*[#   5]
    |psi|^2 = 0.003
==== e(  12) =    17.48659 eV ==== 
     psi = 0.008*[#   3]+0.008*[#   7]+0.002*[#   2]+0.002*[#   6]+0.002*[#   4]
          +0.002*[#   8]
    |psi|^2 = 0.024

Lowdin Charges: 

     Atom #   1: total charge =   3.9493, s =  1.1047, 
     Atom #   1: total charge =   3.9493, p =  2.8446, pz=  0.9423, px=  0.9509, py=  0.9515, 
     Atom #   2: total charge =   3.9493, s =  1.1047, 
     Atom #   2: total charge =   3.9493, p =  2.8446, pz=  0.9423, px=  0.9509, py=  0.9515, 
     Spilling Parameter:   0.0127

     PROJWFC      :      2.09s CPU      1.09s WALL


   This run was terminated on:  16:53:48  17Aug2023            

=------------------------------------------------------------------------------=
   JOB DONE.
=------------------------------------------------------------------------------=
