--------------------------------------------------------------------------
[[9670,1],0]: A high-performance Open MPI point-to-point messaging module
was unable to find any relevant network interfaces:

Module: OpenFabrics (openib)
  Host: qmobile

Another transport will be used instead, although this may result in
lower performance.

NOTE: You can disable this warning by setting the MCA parameter
btl_base_warn_component_unused to 0.
--------------------------------------------------------------------------

     Program PWSCF v.7.2 starts on  9Aug2023 at  0:27:19 

     This program is part of the open-source Quantum ESPRESSO suite
     for quantum simulation of materials; please cite
         "P. Giannozzi et al., J. Phys.:Condens. Matter 21 395502 (2009);
         "P. Giannozzi et al., J. Phys.:Condens. Matter 29 465901 (2017);
         "P. Giannozzi et al., J. Chem. Phys. 152 154105 (2020);
          URL http://www.quantum-espresso.org", 
     in publications or presentations arising from this work. More details at
     http://www.quantum-espresso.org/quote

     Parallel version (MPI), running on     2 processors

     MPI processes distributed on     1 nodes
     303 MiB available memory on the printing compute node when the environment starts

     Reading input from AlAs.scf.in
     Message from routine read_cards :
     DEPRECATED: no units specified in ATOMIC_POSITIONS card
     Message from routine read_cards :
     ATOMIC_POSITIONS: units set to alat

     Current dimensions of program PWSCF are:
     Max number of different atomic species (ntypx) = 10
     Max number of k-points (npk) =  40000
     Max angular momentum in pseudopotentials (lmaxx) =  4

     R & G space division:  proc/nbgrp/npool/nimage =       2
     Subspace diagonalization in iterative solution of the eigenvalue problem:
     a serial algorithm will be used


     Parallelization info
     --------------------
     sticks:   dense  smooth     PW     G-vecs:    dense   smooth      PW
     Min         120     120     42                 1221     1221     264
     Max         121     121     43                 1224     1224     267
     Sum         241     241     85                 2445     2445     531

     Using Slab Decomposition



     bravais-lattice index     =            2
     lattice parameter (alat)  =      10.5000  a.u.
     unit-cell volume          =     289.4062 (a.u.)^3
     number of atoms/cell      =            2
     number of atomic types    =            2
     number of electrons       =         8.00
     number of Kohn-Sham states=            4
     kinetic-energy cutoff     =      16.0000  Ry
     charge density cutoff     =      64.0000  Ry
     scf convergence threshold =      1.0E-08
     mixing beta               =       0.7000
     number of iterations used =            8  plain     mixing
     Exchange-correlation= SLA  PZ   NOGX NOGC
                           (   1   1   0   0   0   0   0)

     celldm(1)=  10.500000  celldm(2)=   0.000000  celldm(3)=   0.000000
     celldm(4)=   0.000000  celldm(5)=   0.000000  celldm(6)=   0.000000

     crystal axes: (cart. coord. in units of alat)
               a(1) = (  -0.500000   0.000000   0.500000 )  
               a(2) = (   0.000000   0.500000   0.500000 )  
               a(3) = (  -0.500000   0.500000   0.000000 )  

     reciprocal axes: (cart. coord. in units 2 pi/alat)
               b(1) = ( -1.000000 -1.000000  1.000000 )  
               b(2) = (  1.000000  1.000000  1.000000 )  
               b(3) = ( -1.000000  1.000000 -1.000000 )  


     PseudoPot. # 1 for Al read from file:
     ../../../files/pseudo/Al.pz-vbc.UPF
     MD5 check sum: f06ceae8da0fe5c02c98e3688433298c
     Pseudo is Norm-conserving, Zval =  3.0
     Generated by new atomic code, or converted to UPF format
     Using radial grid of  171 points,  2 beta functions with: 
                l(1) =   0
                l(2) =   1

     PseudoPot. # 2 for As read from file:
     ../../../files/pseudo/As.pz-bhs.UPF
     MD5 check sum: 2c53d8691f3db84e0fbdf898b12bc293
     Pseudo is Norm-conserving, Zval =  5.0
     Generated by new atomic code, or converted to UPF format
     Using radial grid of  525 points,  2 beta functions with: 
                l(1) =   0
                l(2) =   1

     atomic species   valence    mass     pseudopotential
        Al             3.00    26.98000     Al( 1.00)
        As             5.00    74.92000     As( 1.00)

     24 Sym. Ops. (no inversion) found



   Cartesian axes

     site n.     atom                  positions (alat units)
         1           Al  tau(   1) = (   0.0000000   0.0000000   0.0000000  )
         2           As  tau(   2) = (   0.2500000   0.2500000   0.2500000  )

     number of k points=    29
                       cart. coord. in units 2pi/alat
        k(    1) = (   0.0000000   0.0000000   0.0000000), wk =   0.0039062
        k(    2) = (  -0.1250000   0.1250000  -0.1250000), wk =   0.0312500
        k(    3) = (  -0.2500000   0.2500000  -0.2500000), wk =   0.0312500
        k(    4) = (  -0.3750000   0.3750000  -0.3750000), wk =   0.0312500
        k(    5) = (   0.5000000  -0.5000000   0.5000000), wk =   0.0156250
        k(    6) = (   0.0000000   0.2500000   0.0000000), wk =   0.0234375
        k(    7) = (  -0.1250000   0.3750000  -0.1250000), wk =   0.0937500
        k(    8) = (  -0.2500000   0.5000000  -0.2500000), wk =   0.0937500
        k(    9) = (   0.6250000  -0.3750000   0.6250000), wk =   0.0937500
        k(   10) = (   0.5000000  -0.2500000   0.5000000), wk =   0.0937500
        k(   11) = (   0.3750000  -0.1250000   0.3750000), wk =   0.0937500
        k(   12) = (   0.2500000   0.0000000   0.2500000), wk =   0.0468750
        k(   13) = (   0.0000000   0.5000000   0.0000000), wk =   0.0234375
        k(   14) = (  -0.1250000   0.6250000  -0.1250000), wk =   0.0937500
        k(   15) = (   0.7500000  -0.2500000   0.7500000), wk =   0.0937500
        k(   16) = (   0.6250000  -0.1250000   0.6250000), wk =   0.0937500
        k(   17) = (   0.5000000   0.0000000   0.5000000), wk =   0.0468750
        k(   18) = (   0.0000000   0.7500000   0.0000000), wk =   0.0234375
        k(   19) = (   0.8750000  -0.1250000   0.8750000), wk =   0.0937500
        k(   20) = (   0.7500000   0.0000000   0.7500000), wk =   0.0468750
        k(   21) = (   0.0000000  -1.0000000   0.0000000), wk =   0.0117188
        k(   22) = (  -0.2500000   0.5000000   0.0000000), wk =   0.0937500
        k(   23) = (   0.6250000  -0.3750000   0.8750000), wk =   0.1875000
        k(   24) = (   0.5000000  -0.2500000   0.7500000), wk =   0.0937500
        k(   25) = (   0.7500000  -0.2500000   1.0000000), wk =   0.0937500
        k(   26) = (   0.6250000  -0.1250000   0.8750000), wk =   0.1875000
        k(   27) = (   0.5000000   0.0000000   0.7500000), wk =   0.0937500
        k(   28) = (  -0.2500000  -1.0000000   0.0000000), wk =   0.0468750
        k(   29) = (  -0.5000000  -1.0000000   0.0000000), wk =   0.0234375

     Dense  grid:     2445 G-vectors     FFT dimensions: (  20,  20,  20)

     Estimated max dynamical RAM per process >       1.28 MB

     Estimated total dynamical RAM >       2.56 MB

     Initial potential from superposition of free atoms

     starting charge       7.9977, renormalised to       8.0000
     Starting wfcs are    8 randomized atomic wfcs

     total cpu time spent up to now is        0.3 secs

     Self-consistent Calculation

     iteration #  1     ecut=    16.00 Ry     beta= 0.70
     Davidson diagonalization with overlap
     ethr =  1.00E-02,  avg # of iterations =  2.0

     Threshold (ethr) on eigenvalues was too large:
     Diagonalizing with lowered threshold

     Davidson diagonalization with overlap
     ethr =  8.18E-04,  avg # of iterations =  2.0

     total cpu time spent up to now is        0.4 secs

     total energy              =     -16.98600121 Ry
     estimated scf accuracy    <       0.06744211 Ry

     iteration #  2     ecut=    16.00 Ry     beta= 0.70
     Davidson diagonalization with overlap
     ethr =  8.43E-04,  avg # of iterations =  2.0

     total cpu time spent up to now is        0.4 secs

     total energy              =     -16.99678944 Ry
     estimated scf accuracy    <       0.00407953 Ry

     iteration #  3     ecut=    16.00 Ry     beta= 0.70
     Davidson diagonalization with overlap
     ethr =  5.10E-05,  avg # of iterations =  2.2

     total cpu time spent up to now is        0.5 secs

     total energy              =     -16.99741210 Ry
     estimated scf accuracy    <       0.00034199 Ry

     iteration #  4     ecut=    16.00 Ry     beta= 0.70
     Davidson diagonalization with overlap
     ethr =  4.27E-06,  avg # of iterations =  3.7

     total cpu time spent up to now is        0.5 secs

     total energy              =     -16.99759654 Ry
     estimated scf accuracy    <       0.00005229 Ry

     iteration #  5     ecut=    16.00 Ry     beta= 0.70
     Davidson diagonalization with overlap
     ethr =  6.54E-07,  avg # of iterations =  3.0

     total cpu time spent up to now is        0.6 secs

     total energy              =     -16.99760800 Ry
     estimated scf accuracy    <       0.00003893 Ry

     iteration #  6     ecut=    16.00 Ry     beta= 0.70
     Davidson diagonalization with overlap
     ethr =  4.87E-07,  avg # of iterations =  2.0

     total cpu time spent up to now is        0.6 secs

     total energy              =     -16.99761408 Ry
     estimated scf accuracy    <       0.00000013 Ry

     iteration #  7     ecut=    16.00 Ry     beta= 0.70
     Davidson diagonalization with overlap
     ethr =  1.57E-09,  avg # of iterations =  6.3

     total cpu time spent up to now is        0.7 secs

     total energy              =     -16.99761464 Ry
     estimated scf accuracy    <       0.00000013 Ry

     iteration #  8     ecut=    16.00 Ry     beta= 0.70
     Davidson diagonalization with overlap
     ethr =  1.57E-09,  avg # of iterations =  1.9

     total cpu time spent up to now is        0.7 secs

     End of self-consistent calculation

          k = 0.0000 0.0000 0.0000 (   331 PWs)   bands (ev):

    -7.0161   5.1370   5.1370   5.1370

          k =-0.1250 0.1250-0.1250 (   319 PWs)   bands (ev):

    -6.8510   3.7247   4.9779   4.9779

          k =-0.2500 0.2500-0.2500 (   311 PWs)   bands (ev):

    -6.3962   1.6768   4.6608   4.6608

          k =-0.3750 0.3750-0.3750 (   314 PWs)   bands (ev):

    -5.7992   0.0272   4.4051   4.4051

          k = 0.5000-0.5000 0.5000 (   302 PWs)   bands (ev):

    -5.4662  -0.6587   4.3134   4.3134

          k = 0.0000 0.2500 0.0000 (   315 PWs)   bands (ev):

    -6.7955   3.8080   4.6258   4.6258

          k =-0.1250 0.3750-0.1250 (   312 PWs)   bands (ev):

    -6.4352   2.2322   4.2294   4.2795

          k =-0.2500 0.5000-0.2500 (   317 PWs)   bands (ev):

    -5.8727   0.5506   3.7935   4.0053

          k = 0.6250-0.3750 0.6250 (   314 PWs)   bands (ev):

    -5.4098  -0.4579   3.3990   4.0237

          k = 0.5000-0.2500 0.5000 (   314 PWs)   bands (ev):

    -5.5237  -0.2275   3.2453   4.2707

          k = 0.3750-0.1250 0.3750 (   311 PWs)   bands (ev):

    -6.0736   1.0737   3.4145   4.6582

          k = 0.2500 0.0000 0.2500 (   317 PWs)   bands (ev):

    -6.5904   2.6805   4.0384   4.9859

          k = 0.0000 0.5000 0.0000 (   311 PWs)   bands (ev):

    -6.1825   1.9096   3.7539   3.7539

          k =-0.1250 0.6250-0.1250 (   316 PWs)   bands (ev):

    -5.7090   0.8207   3.1014   3.4746

          k = 0.7500-0.2500 0.7500 (   311 PWs)   bands (ev):

    -5.2275  -0.0627   2.2879   3.4783

          k = 0.6250-0.1250 0.6250 (   309 PWs)   bands (ev):

    -5.1547  -0.1497   1.8418   3.7590

          k = 0.5000 0.0000 0.5000 (   315 PWs)   bands (ev):

    -5.5718   0.4768   2.1248   4.2324

          k = 0.0000 0.7500 0.0000 (   322 PWs)   bands (ev):

    -5.3605   0.2773   3.1171   3.1171

          k = 0.8750-0.1250 0.8750 (   316 PWs)   bands (ev):

    -4.9968  -0.2155   2.3870   3.0496

          k = 0.7500 0.0000 0.7500 (   308 PWs)   bands (ev):

    -4.9047  -0.1795   1.5320   3.2851

          k = 0.0000-1.0000 0.0000 (   302 PWs)   bands (ev):

    -4.8700  -0.4669   2.8991   2.8991

          k =-0.2500 0.5000 0.0000 (   311 PWs)   bands (ev):

    -6.0134   1.3107   3.1014   4.1458

          k = 0.6250-0.3750 0.8750 (   315 PWs)   bands (ev):

    -5.4760   0.2182   2.4927   3.7389

          k = 0.5000-0.2500 0.7500 (   308 PWs)   bands (ev):

    -5.1873  -0.3083   2.3431   3.5437

          k = 0.7500-0.2500 1.0000 (   321 PWs)   bands (ev):

    -5.2698   0.2010   2.4655   3.0110

          k = 0.6250-0.1250 0.8750 (   313 PWs)   bands (ev):

    -4.9577  -0.1086   1.7603   2.8371

          k = 0.5000 0.0000 0.7500 (   311 PWs)   bands (ev):

    -5.0658   0.0218   1.6035   3.1747

          k =-0.2500-1.0000 0.0000 (   316 PWs)   bands (ev):

    -4.8582  -0.3019   2.3146   2.4818

          k =-0.5000-1.0000 0.0000 (   308 PWs)   bands (ev):

    -4.8341  -0.0719   1.7710   2.1697

     highest occupied level (ev):     5.1370

!    total energy              =     -16.99761465 Ry
     estimated scf accuracy    <          7.7E-09 Ry

     The total energy is the sum of the following terms:
     one-electron contribution =       3.42720111 Ry
     hartree contribution      =       1.54146520 Ry
     xc contribution           =      -4.82881504 Ry
     ewald contribution        =     -17.13746592 Ry

     convergence has been achieved in   8 iterations

     Writing all to output data dir ./tmp/AlAs.save/

     init_run     :      0.21s CPU      0.21s WALL (       1 calls)
     electrons    :      0.46s CPU      0.48s WALL (       1 calls)

     Called by init_run:
     wfcinit      :      0.05s CPU      0.05s WALL (       1 calls)
     potinit      :      0.00s CPU      0.00s WALL (       1 calls)
     hinit0       :      0.15s CPU      0.15s WALL (       1 calls)

     Called by electrons:
     c_bands      :      0.40s CPU      0.42s WALL (       9 calls)
     sum_band     :      0.06s CPU      0.06s WALL (       9 calls)
     v_of_rho     :      0.00s CPU      0.00s WALL (       9 calls)
     mix_rho      :      0.00s CPU      0.00s WALL (       9 calls)

     Called by c_bands:
     init_us_2    :      0.02s CPU      0.02s WALL (     551 calls)
     init_us_2:cp :      0.02s CPU      0.02s WALL (     551 calls)
     cegterg      :      0.37s CPU      0.40s WALL (     261 calls)

     Called by *egterg:
     cdiaghg      :      0.03s CPU      0.03s WALL (     962 calls)
     h_psi        :      0.32s CPU      0.34s WALL (    1020 calls)
     g_psi        :      0.00s CPU      0.00s WALL (     730 calls)

     Called by h_psi:
     h_psi:calbec :      0.02s CPU      0.02s WALL (    1020 calls)
     vloc_psi     :      0.28s CPU      0.30s WALL (    1020 calls)
     add_vuspsi   :      0.01s CPU      0.01s WALL (    1020 calls)

     General routines
     calbec       :      0.02s CPU      0.02s WALL (    1020 calls)
     fft          :      0.11s CPU      0.11s WALL (      27 calls)
     ffts         :      0.00s CPU      0.00s WALL (       9 calls)
     fftw         :      0.27s CPU      0.28s WALL (    8046 calls)

     Parallel routines

     PWSCF        :      0.72s CPU      0.76s WALL


   This run was terminated on:   0:27:20   9Aug2023            

=------------------------------------------------------------------------------=
   JOB DONE.
=------------------------------------------------------------------------------=
