--------------------------------------------------------------------------
[[9704,1],1]: A high-performance Open MPI point-to-point messaging module
was unable to find any relevant network interfaces:

Module: OpenFabrics (openib)
  Host: qmobile

Another transport will be used instead, although this may result in
lower performance.

NOTE: You can disable this warning by setting the MCA parameter
btl_base_warn_component_unused to 0.
--------------------------------------------------------------------------

     Program PHONON v.7.2 starts on  9Aug2023 at  0:29:16 

     This program is part of the open-source Quantum ESPRESSO suite
     for quantum simulation of materials; please cite
         "P. Giannozzi et al., J. Phys.:Condens. Matter 21 395502 (2009);
         "P. Giannozzi et al., J. Phys.:Condens. Matter 29 465901 (2017);
         "P. Giannozzi et al., J. Chem. Phys. 152 154105 (2020);
          URL http://www.quantum-espresso.org", 
     in publications or presentations arising from this work. More details at
     http://www.quantum-espresso.org/quote

     Parallel version (MPI), running on     2 processors

     MPI processes distributed on     1 nodes
     303 MiB available memory on the printing compute node when the environment starts

     Reading input from AlAs.phG.in

     Reading xml data from directory:

     ./tmp/AlAs.save/

     R & G space division:  proc/nbgrp/npool/nimage =       2
     Subspace diagonalization in iterative solution of the eigenvalue problem:
     a serial algorithm will be used


     IMPORTANT: XC functional enforced from input :
     Exchange-correlation= PZ
                           (   1   1   0   0   0   0   0)
     Any further DFT definition will be discarded
     Please, verify this is what you really want


     Parallelization info
     --------------------
     sticks:   dense  smooth     PW     G-vecs:    dense   smooth      PW
     Min         120     120     42                 1221     1221     264
     Max         121     121     43                 1224     1224     267
     Sum         241     241     85                 2445     2445     531

     Using Slab Decomposition

     Reading collected, re-writing distributed wavefunctions in ./tmp/

     Calculation of q =    0.0000000   0.0000000   0.0000000

     Phonons at Gamma                                                           

     bravais-lattice index     =            2
     lattice parameter (alat)  =      10.5000  a.u.
     unit-cell volume          =     289.4062 (a.u.)^3
     number of atoms/cell      =            2
     number of atomic types    =            2
     kinetic-energy cut-off    =      16.0000  Ry
     charge density cut-off    =      64.0000  Ry
     convergence threshold     =      1.0E-14
     beta                      =       0.7000
     number of iterations used =            4
     Exchange-correlation= PZ
                           (   1   1   0   0   0   0   0)


     celldm(1)=   10.50000  celldm(2)=    0.00000  celldm(3)=    0.00000
     celldm(4)=    0.00000  celldm(5)=    0.00000  celldm(6)=    0.00000

     crystal axes: (cart. coord. in units of alat)
               a(1) = ( -0.5000  0.0000  0.5000 )  
               a(2) = (  0.0000  0.5000  0.5000 )  
               a(3) = ( -0.5000  0.5000  0.0000 )  

     reciprocal axes: (cart. coord. in units 2 pi/alat)
               b(1) = ( -1.0000 -1.0000  1.0000 )  
               b(2) = (  1.0000  1.0000  1.0000 )  
               b(3) = ( -1.0000  1.0000 -1.0000 )  


     Atoms inside the unit cell: 

     Cartesian axes

     site n.  atom      mass           positions (alat units)
        1     Al  26.9800   tau(    1) = (    0.00000    0.00000    0.00000  )
        2     As  74.9200   tau(    2) = (    0.25000    0.25000    0.25000  )

     Computing dynamical matrix for 
                    q = (   0.0000000   0.0000000   0.0000000 )

     25 Sym.Ops. (with q -> -q+G )


     G cutoff =  178.7306  (   1224 G-vectors)     FFT grid: ( 20, 20, 20)
     number of k points=    29
                       cart. coord. in units 2pi/alat
        k(    1) = (   0.0000000   0.0000000   0.0000000), wk =   0.0039062
        k(    2) = (  -0.1250000   0.1250000  -0.1250000), wk =   0.0312500
        k(    3) = (  -0.2500000   0.2500000  -0.2500000), wk =   0.0312500
        k(    4) = (  -0.3750000   0.3750000  -0.3750000), wk =   0.0312500
        k(    5) = (   0.5000000  -0.5000000   0.5000000), wk =   0.0156250
        k(    6) = (   0.0000000   0.2500000   0.0000000), wk =   0.0234375
        k(    7) = (  -0.1250000   0.3750000  -0.1250000), wk =   0.0937500
        k(    8) = (  -0.2500000   0.5000000  -0.2500000), wk =   0.0937500
        k(    9) = (   0.6250000  -0.3750000   0.6250000), wk =   0.0937500
        k(   10) = (   0.5000000  -0.2500000   0.5000000), wk =   0.0937500
        k(   11) = (   0.3750000  -0.1250000   0.3750000), wk =   0.0937500
        k(   12) = (   0.2500000   0.0000000   0.2500000), wk =   0.0468750
        k(   13) = (   0.0000000   0.5000000   0.0000000), wk =   0.0234375
        k(   14) = (  -0.1250000   0.6250000  -0.1250000), wk =   0.0937500
        k(   15) = (   0.7500000  -0.2500000   0.7500000), wk =   0.0937500
        k(   16) = (   0.6250000  -0.1250000   0.6250000), wk =   0.0937500
        k(   17) = (   0.5000000   0.0000000   0.5000000), wk =   0.0468750
        k(   18) = (   0.0000000   0.7500000   0.0000000), wk =   0.0234375
        k(   19) = (   0.8750000  -0.1250000   0.8750000), wk =   0.0937500
        k(   20) = (   0.7500000   0.0000000   0.7500000), wk =   0.0468750
        k(   21) = (   0.0000000  -1.0000000   0.0000000), wk =   0.0117188
        k(   22) = (  -0.2500000   0.5000000   0.0000000), wk =   0.0937500
        k(   23) = (   0.6250000  -0.3750000   0.8750000), wk =   0.1875000
        k(   24) = (   0.5000000  -0.2500000   0.7500000), wk =   0.0937500
        k(   25) = (   0.7500000  -0.2500000   1.0000000), wk =   0.0937500
        k(   26) = (   0.6250000  -0.1250000   0.8750000), wk =   0.1875000
        k(   27) = (   0.5000000   0.0000000   0.7500000), wk =   0.0937500
        k(   28) = (  -0.2500000  -1.0000000   0.0000000), wk =   0.0468750
        k(   29) = (  -0.5000000  -1.0000000   0.0000000), wk =   0.0234375

     PseudoPot. # 1 for Al read from file:
     ../../../files/pseudo/Al.pz-vbc.UPF
     MD5 check sum: f06ceae8da0fe5c02c98e3688433298c
     Pseudo is Norm-conserving, Zval =  3.0
     Generated by new atomic code, or converted to UPF format
     Using radial grid of  171 points,  2 beta functions with: 
                l(1) =   0
                l(2) =   1

     PseudoPot. # 2 for As read from file:
     ../../../files/pseudo/As.pz-bhs.UPF
     MD5 check sum: 2c53d8691f3db84e0fbdf898b12bc293
     Pseudo is Norm-conserving, Zval =  5.0
     Generated by new atomic code, or converted to UPF format
     Using radial grid of  525 points,  2 beta functions with: 
                l(1) =   0
                l(2) =   1

     Mode symmetry, T_d (-43m)  point group:


     Electric field:
     Dielectric constant
     Born effective charges in two ways 


     Atomic displacements:
     There are    2 irreducible representations

     Representation     1      3 modes -  To be done

     Representation     2      3 modes -  To be done



     Alpha used in Ewald sum =   0.7000
     PHONON       :      0.23s CPU      0.29s WALL


     Electric Fields Calculation

      iter #   1 total cpu time :     1.4 secs   av.it.:   6.0
      thresh= 1.000E-02 alpha_mix =  0.700 |ddv_scf|^2 =  1.191E-06

      iter #   2 total cpu time :     1.9 secs   av.it.:   9.8
      thresh= 1.091E-04 alpha_mix =  0.700 |ddv_scf|^2 =  5.693E-08

      iter #   3 total cpu time :     2.3 secs   av.it.:   9.6
      thresh= 2.386E-05 alpha_mix =  0.700 |ddv_scf|^2 =  3.780E-10

      iter #   4 total cpu time :     2.8 secs   av.it.:   9.8
      thresh= 1.944E-06 alpha_mix =  0.700 |ddv_scf|^2 =  1.827E-12

      iter #   5 total cpu time :     3.3 secs   av.it.:   9.2
      thresh= 1.352E-07 alpha_mix =  0.700 |ddv_scf|^2 =  2.570E-14

      iter #   6 total cpu time :     3.7 secs   av.it.:   9.7
      thresh= 1.603E-08 alpha_mix =  0.700 |ddv_scf|^2 =  1.696E-16

     End of electric fields calculation

          Dielectric constant in cartesian axis 

          (       9.376324511       0.000000000       0.000000000 )
          (       0.000000000       9.376324511       0.000000000 )
          (       0.000000000      -0.000000000       9.376324511 )

          Effective charges (d Force / dE) in cartesian axis without acoustic sum rule applied (asr)

           atom      1   Al Mean Z*:        2.12240
      Ex  (        2.12240       -0.00000       -0.00000 )
      Ey  (       -0.00000        2.12240       -0.00000 )
      Ez  (        0.00000       -0.00000        2.12240 )
           atom      2   As Mean Z*:       -2.17742
      Ex  (       -2.17742       -0.00000        0.00000 )
      Ey  (       -0.00000       -2.17742       -0.00000 )
      Ez  (        0.00000       -0.00000       -2.17742 )

          Effective charges Sum: Mean:       -0.05502
             -0.05502       -0.00000        0.00000
             -0.00000       -0.05502       -0.00000
             -0.00000       -0.00000       -0.05502

          Effective charges (d Force / dE) in cartesian axis with asr applied: 
           atom      1   Al Mean Z*:        2.14991
      E*x (        2.14991        0.00000       -0.00000 )
      E*y (        0.00000        2.14991        0.00000 )
      E*z (       -0.00000        0.00000        2.14991 )
           atom      2   As Mean Z*:       -2.14991
      E*x (       -2.14991       -0.00000        0.00000 )
      E*y (       -0.00000       -2.14991       -0.00000 )
      E*z (        0.00000       -0.00000       -2.14991 )


     Representation #   1 modes #   1   2   3

     Self-consistent Calculation

      iter #   1 total cpu time :     4.2 secs   av.it.:   5.9
      thresh= 1.000E-02 alpha_mix =  0.700 |ddv_scf|^2 =  4.589E-07

      iter #   2 total cpu time :     4.7 secs   av.it.:  10.1
      thresh= 6.774E-05 alpha_mix =  0.700 |ddv_scf|^2 =  2.178E-08

      iter #   3 total cpu time :     5.2 secs   av.it.:   9.9
      thresh= 1.476E-05 alpha_mix =  0.700 |ddv_scf|^2 =  3.774E-11

      iter #   4 total cpu time :     5.7 secs   av.it.:   9.8
      thresh= 6.143E-07 alpha_mix =  0.700 |ddv_scf|^2 =  5.873E-13

      iter #   5 total cpu time :     6.2 secs   av.it.:   9.6
      thresh= 7.664E-08 alpha_mix =  0.700 |ddv_scf|^2 =  6.946E-15

     End of self-consistent calculation

     Convergence has been achieved 


     Representation #   2 modes #   4   5   6

     Self-consistent Calculation

      iter #   1 total cpu time :     6.5 secs   av.it.:   4.9
      thresh= 1.000E-02 alpha_mix =  0.700 |ddv_scf|^2 =  2.920E-08

      iter #   2 total cpu time :     7.0 secs   av.it.:   9.9
      thresh= 1.709E-05 alpha_mix =  0.700 |ddv_scf|^2 =  3.336E-10

      iter #   3 total cpu time :     7.5 secs   av.it.:   9.6
      thresh= 1.827E-06 alpha_mix =  0.700 |ddv_scf|^2 =  3.056E-11

      iter #   4 total cpu time :     8.0 secs   av.it.:   9.5
      thresh= 5.528E-07 alpha_mix =  0.700 |ddv_scf|^2 =  1.328E-12

      iter #   5 total cpu time :     8.5 secs   av.it.:   9.8
      thresh= 1.152E-07 alpha_mix =  0.700 |ddv_scf|^2 =  4.421E-16

     End of self-consistent calculation

     Convergence has been achieved 

     Number of q in the star =    1
     List of q in the star:
          1   0.000000000   0.000000000   0.000000000

          Dielectric constant in cartesian axis 

          (       9.376324511       0.000000000       0.000000000 )
          (       0.000000000       9.376324511       0.000000000 )
          (       0.000000000      -0.000000000       9.376324511 )

          Effective charges (d Force / dE) in cartesian axis without acoustic sum rule applied (asr)

           atom      1   Al Mean Z*:        2.12240
      Ex  (        2.12240       -0.00000       -0.00000 )
      Ey  (       -0.00000        2.12240       -0.00000 )
      Ez  (        0.00000       -0.00000        2.12240 )
           atom      2   As Mean Z*:       -2.17742
      Ex  (       -2.17742       -0.00000        0.00000 )
      Ey  (       -0.00000       -2.17742       -0.00000 )
      Ez  (        0.00000       -0.00000       -2.17742 )

          Effective charges Sum: Mean:       -0.05502
             -0.05502       -0.00000        0.00000
             -0.00000       -0.05502       -0.00000
             -0.00000       -0.00000       -0.05502

          Effective charges (d Force / dE) in cartesian axis with asr applied: 
           atom      1   Al Mean Z*:        2.14991
      E*x (        2.14991        0.00000       -0.00000 )
      E*y (        0.00000        2.14991        0.00000 )
      E*z (       -0.00000        0.00000        2.14991 )
           atom      2   As Mean Z*:       -2.14991
      E*x (       -2.14991       -0.00000        0.00000 )
      E*y (       -0.00000       -2.14991       -0.00000 )
      E*z (        0.00000       -0.00000       -2.14991 )

          Effective charges (d P / du) in cartesian axis 

           atom      1   Al 
      Px  (        2.12249        0.00000       -0.00000 )
      Py  (        0.00000        2.12249       -0.00000 )
      Pz  (       -0.00000       -0.00000        2.12249 )
           atom      2   As 
      Px  (       -2.17694        0.00000        0.00000 )
      Py  (        0.00000       -2.17694        0.00000 )
      Pz  (        0.00000        0.00000       -2.17694 )

     Diagonalizing the dynamical matrix

     q = (    0.000000000   0.000000000   0.000000000 ) 

 **************************************************************************
     freq (    1) =       0.197606 [THz] =       6.591441 [cm-1]
     freq (    2) =       0.197606 [THz] =       6.591441 [cm-1]
     freq (    3) =       0.197606 [THz] =       6.591441 [cm-1]
     freq (    4) =      11.219620 [THz] =     374.246254 [cm-1]
     freq (    5) =      11.219620 [THz] =     374.246254 [cm-1]
     freq (    6) =      11.219620 [THz] =     374.246254 [cm-1]
 **************************************************************************

     Mode symmetry, T_d (-43m)  point group:

     freq (   1-   3) =          6.6  [cm-1]   --> T_2  G_15 P_4   I+R
     freq (   4-   6) =        374.2  [cm-1]   --> T_2  G_15 P_4   I+R

     PHONON       :      7.95s CPU      8.48s WALL

     INITIALIZATION: 
     phq_setup    :      0.00s CPU      0.00s WALL (       1 calls)
     phq_init     :      0.03s CPU      0.04s WALL (       1 calls)

     phq_init     :      0.03s CPU      0.04s WALL (       1 calls)
     init_vloc    :      0.00s CPU      0.00s WALL (       1 calls)
     init_us_1    :      0.01s CPU      0.01s WALL (       1 calls)
     init_us_2    :      0.04s CPU      0.04s WALL (     812 calls)

     DIELECTRIC CONSTANT AND EFFECTIVE CHARGES:
     solve_e      :      3.30s CPU      3.44s WALL (       1 calls)
     dielec       :      0.00s CPU      0.00s WALL (       1 calls)
     zstar_eu     :      0.08s CPU      0.09s WALL (       1 calls)

     DYNAMICAL MATRIX:
     dynmat0      :      0.01s CPU      0.02s WALL (       1 calls)
     dynmat_us    :      0.01s CPU      0.01s WALL (       1 calls)
     d2ionq       :      0.00s CPU      0.00s WALL (       1 calls)
     phqscf       :      4.34s CPU      4.64s WALL (       1 calls)
     dynmatrix    :      0.00s CPU      0.01s WALL (       1 calls)

     phqscf       :      4.34s CPU      4.64s WALL (       1 calls)
     solve_linter :      4.32s CPU      4.61s WALL (       2 calls)
     sth_kernel   :      6.56s CPU      6.90s WALL (      16 calls)
     h_prec       :      0.01s CPU      0.01s WALL (     551 calls)
     apply_dpot_b :      0.37s CPU      0.39s WALL (    1131 calls)
     ortho        :      0.04s CPU      0.04s WALL (    1479 calls)
     cgsolve      :      6.36s CPU      6.73s WALL (    1479 calls)
     incdrhoscf   :      0.41s CPU      0.44s WALL (    1392 calls)
                                        0.00s GPU  (    1392 calls)
     dv_of_drho   :      0.01s CPU      0.01s WALL (      48 calls)
     mix_pot      :      0.01s CPU      0.02s WALL (      16 calls)
     drhodv       :      0.01s CPU      0.02s WALL (       2 calls)
     add_zstar_ue :      0.01s CPU      0.01s WALL (       2 calls)
     psymdvscf    :      0.15s CPU      0.15s WALL (      10 calls)

     dvqpsi_us    :      0.16s CPU      0.18s WALL (     348 calls)
                                        0.00s GPU  (     348 calls)
     dvqpsi_us_on :      0.02s CPU      0.02s WALL (     348 calls)

     add_vuspsi   :      0.17s CPU      0.18s WALL (   16161 calls)


      General routines
     calbec       :      0.57s CPU      0.61s WALL (   33395 calls)
     fft          :      0.10s CPU      0.12s WALL (     148 calls)
     ffts         :      0.02s CPU      0.02s WALL (     360 calls)
     fftw         :      4.37s CPU      4.62s WALL (  139768 calls)
     davcio       :      0.05s CPU      0.06s WALL (    6789 calls)
     write_rec    :      0.01s CPU      0.01s WALL (      18 calls)

      Additional routines
     ch_psi       :      5.96s CPU      6.30s WALL (   16161 calls)
     last         :      0.77s CPU      0.81s WALL (   16161 calls)
     Hesh         :      0.04s CPU      0.04s WALL (   16161 calls)
     ch_psi_all_k :      0.68s CPU      0.72s WALL (   16161 calls)
                                        0.00s GPU  (   16161 calls)
     ch_psi_calbe :      0.30s CPU      0.32s WALL (   16161 calls)
                                        0.00s GPU  (   16161 calls)
     h_psi_bgrp   :      5.06s CPU      5.35s WALL (   16161 calls)
     h_psi        :      5.03s CPU      5.32s WALL (   16161 calls)
     h_psi:pot    :      4.98s CPU      5.27s WALL (   16161 calls)
     h_psi:calbec :      0.32s CPU      0.34s WALL (   16161 calls)
     s_psi_bgrp   :      0.09s CPU      0.09s WALL (   33801 calls)


     PHONON       :      7.95s CPU      8.49s WALL


   This run was terminated on:   0:29:25   9Aug2023            

=------------------------------------------------------------------------------=
   JOB DONE.
=------------------------------------------------------------------------------=
