--------------------------------------------------------------------------
[[14769,1],0]: A high-performance Open MPI point-to-point messaging module
was unable to find any relevant network interfaces:

Module: OpenFabrics (openib)
  Host: qmobile

Another transport will be used instead, although this may result in
lower performance.

NOTE: You can disable this warning by setting the MCA parameter
btl_base_warn_component_unused to 0.
--------------------------------------------------------------------------

     Program PHONON v.7.2 starts on  8Aug2023 at 23:17:35 

     This program is part of the open-source Quantum ESPRESSO suite
     for quantum simulation of materials; please cite
         "P. Giannozzi et al., J. Phys.:Condens. Matter 21 395502 (2009);
         "P. Giannozzi et al., J. Phys.:Condens. Matter 29 465901 (2017);
         "P. Giannozzi et al., J. Chem. Phys. 152 154105 (2020);
          URL http://www.quantum-espresso.org", 
     in publications or presentations arising from this work. More details at
     http://www.quantum-espresso.org/quote

     Parallel version (MPI), running on     2 processors

     MPI processes distributed on     1 nodes
     270 MiB available memory on the printing compute node when the environment starts

     Reading input from Si.ph.in

     Reading xml data from directory:

     ./tmp/Si.save/

     R & G space division:  proc/nbgrp/npool/nimage =       2
     Subspace diagonalization in iterative solution of the eigenvalue problem:
     a serial algorithm will be used


     IMPORTANT: XC functional enforced from input :
     Exchange-correlation= PZ
                           (   1   1   0   0   0   0   0)
     Any further DFT definition will be discarded
     Please, verify this is what you really want


     Parallelization info
     --------------------
     sticks:   dense  smooth     PW     G-vecs:    dense   smooth      PW
     Min         126     126     42                 1365     1365     264
     Max         127     127     43                 1368     1368     267
     Sum         253     253     85                 2733     2733     531

     Using Slab Decomposition

     Reading collected, re-writing distributed wavefunctions in ./tmp/

     Calculation of q =    0.0000000   0.0000000   0.0000000

     Phonons at Gamma                                                           

     bravais-lattice index     =            2
     lattice parameter (alat)  =      10.2000  a.u.
     unit-cell volume          =     265.3020 (a.u.)^3
     number of atoms/cell      =            2
     number of atomic types    =            1
     kinetic-energy cut-off    =      18.0000  Ry
     charge density cut-off    =      72.0000  Ry
     convergence threshold     =      1.0E-14
     beta                      =       0.7000
     number of iterations used =            4
     Exchange-correlation= PZ
                           (   1   1   0   0   0   0   0)


     celldm(1)=   10.20000  celldm(2)=    0.00000  celldm(3)=    0.00000
     celldm(4)=    0.00000  celldm(5)=    0.00000  celldm(6)=    0.00000

     crystal axes: (cart. coord. in units of alat)
               a(1) = ( -0.5000  0.0000  0.5000 )  
               a(2) = (  0.0000  0.5000  0.5000 )  
               a(3) = ( -0.5000  0.5000  0.0000 )  

     reciprocal axes: (cart. coord. in units 2 pi/alat)
               b(1) = ( -1.0000 -1.0000  1.0000 )  
               b(2) = (  1.0000  1.0000  1.0000 )  
               b(3) = ( -1.0000  1.0000 -1.0000 )  


     Atoms inside the unit cell: 

     Cartesian axes

     site n.  atom      mass           positions (alat units)
        1     Si  28.0855   tau(    1) = (    0.00000    0.00000    0.00000  )
        2     Si  28.0855   tau(    2) = (    0.25000    0.25000    0.25000  )

     Computing dynamical matrix for 
                    q = (   0.0000000   0.0000000   0.0000000 )

     49 Sym.Ops. (with q -> -q+G )


     G cutoff =  189.7462  (   1365 G-vectors)     FFT grid: ( 20, 20, 20)
     number of k points=    10
                       cart. coord. in units 2pi/alat
        k(    1) = (   0.1250000   0.1250000   0.1250000), wk =   0.0625000
        k(    2) = (   0.1250000   0.1250000   0.3750000), wk =   0.1875000
        k(    3) = (   0.1250000   0.1250000   0.6250000), wk =   0.1875000
        k(    4) = (   0.1250000   0.1250000   0.8750000), wk =   0.1875000
        k(    5) = (   0.1250000   0.3750000   0.3750000), wk =   0.1875000
        k(    6) = (   0.1250000   0.3750000   0.6250000), wk =   0.3750000
        k(    7) = (   0.1250000   0.3750000   0.8750000), wk =   0.3750000
        k(    8) = (   0.1250000   0.6250000   0.6250000), wk =   0.1875000
        k(    9) = (   0.3750000   0.3750000   0.3750000), wk =   0.0625000
        k(   10) = (   0.3750000   0.3750000   0.6250000), wk =   0.1875000

     PseudoPot. # 1 for Si read from file:
     ../../../files/pseudo/Si.pz-vbc.UPF
     MD5 check sum: 9f25e6ff280f3123e9b3a84715b2e9c9
     Pseudo is Norm-conserving, Zval =  4.0
     Generated by new atomic code, or converted to UPF format
     Using radial grid of  431 points,  2 beta functions with: 
                l(1) =   0
                l(2) =   1

     Mode symmetry, O_h (m-3m)  point group:


     Electric field:
     Dielectric constant
     Born effective charges as d Force / d E


     Atomic displacements:
     There are    2 irreducible representations

     Representation     1      3 modes -  To be done

     Representation     2      3 modes -  To be done



     Alpha used in Ewald sum =   0.7000
     PHONON       :      0.19s CPU      0.22s WALL


     Electric Fields Calculation

      iter #   1 total cpu time :     0.6 secs   av.it.:   5.5
      thresh= 1.000E-02 alpha_mix =  0.700 |ddv_scf|^2 =  8.876E-07

      iter #   2 total cpu time :     0.8 secs   av.it.:   9.3
      thresh= 9.421E-05 alpha_mix =  0.700 |ddv_scf|^2 =  3.366E-08

      iter #   3 total cpu time :     1.0 secs   av.it.:   9.2
      thresh= 1.835E-05 alpha_mix =  0.700 |ddv_scf|^2 =  3.540E-10

      iter #   4 total cpu time :     1.1 secs   av.it.:   9.3
      thresh= 1.881E-06 alpha_mix =  0.700 |ddv_scf|^2 =  1.516E-12

      iter #   5 total cpu time :     1.3 secs   av.it.:   9.0
      thresh= 1.231E-07 alpha_mix =  0.700 |ddv_scf|^2 =  1.889E-15

     End of electric fields calculation

          Dielectric constant in cartesian axis 

          (      13.806605797      -0.000000000       0.000000000 )
          (      -0.000000000      13.806605797      -0.000000000 )
          (       0.000000000      -0.000000000      13.806605797 )

          Effective charges (d Force / dE) in cartesian axis without acoustic sum rule applied (asr)

           atom      1   Si Mean Z*:       -0.07570
      Ex  (       -0.07570        0.00000        0.00000 )
      Ey  (        0.00000       -0.07570        0.00000 )
      Ez  (        0.00000        0.00000       -0.07570 )
           atom      2   Si Mean Z*:       -0.07570
      Ex  (       -0.07570       -0.00000        0.00000 )
      Ey  (       -0.00000       -0.07570       -0.00000 )
      Ez  (        0.00000       -0.00000       -0.07570 )

          Effective charges Sum: Mean:       -0.15140
             -0.15140        0.00000        0.00000
              0.00000       -0.15140       -0.00000
              0.00000       -0.00000       -0.15140

          Effective charges (d Force / dE) in cartesian axis with asr applied: 
           atom      1   Si Mean Z*:       -0.00000
      E*x (        0.00000        0.00000        0.00000 )
      E*y (        0.00000        0.00000        0.00000 )
      E*z (        0.00000        0.00000       -0.00000 )
           atom      2   Si Mean Z*:        0.00000
      E*x (        0.00000       -0.00000        0.00000 )
      E*y (       -0.00000        0.00000       -0.00000 )
      E*z (        0.00000       -0.00000        0.00000 )


     Representation #   1 modes #   1   2   3

     Self-consistent Calculation

      iter #   1 total cpu time :     1.4 secs   av.it.:   5.0
      thresh= 1.000E-02 alpha_mix =  0.700 |ddv_scf|^2 =  1.898E-07

      iter #   2 total cpu time :     1.6 secs   av.it.:   9.7
      thresh= 4.357E-05 alpha_mix =  0.700 |ddv_scf|^2 =  3.314E-09

      iter #   3 total cpu time :     1.8 secs   av.it.:   9.6
      thresh= 5.757E-06 alpha_mix =  0.700 |ddv_scf|^2 =  3.335E-11

      iter #   4 total cpu time :     2.0 secs   av.it.:   8.8
      thresh= 5.775E-07 alpha_mix =  0.700 |ddv_scf|^2 =  2.862E-14

      iter #   5 total cpu time :     2.1 secs   av.it.:   9.5
      thresh= 1.692E-08 alpha_mix =  0.700 |ddv_scf|^2 =  2.712E-16

     End of self-consistent calculation

     Convergence has been achieved 


     Representation #   2 modes #   4   5   6

     Self-consistent Calculation

      iter #   1 total cpu time :     2.3 secs   av.it.:   4.9
      thresh= 1.000E-02 alpha_mix =  0.700 |ddv_scf|^2 =  1.333E-07

      iter #   2 total cpu time :     2.4 secs   av.it.:   9.3
      thresh= 3.651E-05 alpha_mix =  0.700 |ddv_scf|^2 =  4.771E-09

      iter #   3 total cpu time :     2.6 secs   av.it.:   9.1
      thresh= 6.907E-06 alpha_mix =  0.700 |ddv_scf|^2 =  4.399E-11

      iter #   4 total cpu time :     2.8 secs   av.it.:   8.8
      thresh= 6.632E-07 alpha_mix =  0.700 |ddv_scf|^2 =  9.635E-14

      iter #   5 total cpu time :     2.9 secs   av.it.:   9.4
      thresh= 3.104E-08 alpha_mix =  0.700 |ddv_scf|^2 =  1.281E-15

     End of self-consistent calculation

     Convergence has been achieved 

     Number of q in the star =    1
     List of q in the star:
          1   0.000000000   0.000000000   0.000000000

          Dielectric constant in cartesian axis 

          (      13.806605797      -0.000000000       0.000000000 )
          (      -0.000000000      13.806605797      -0.000000000 )
          (       0.000000000      -0.000000000      13.806605797 )

          Effective charges (d Force / dE) in cartesian axis without acoustic sum rule applied (asr)

           atom      1   Si Mean Z*:       -0.07570
      Ex  (       -0.07570        0.00000        0.00000 )
      Ey  (        0.00000       -0.07570        0.00000 )
      Ez  (        0.00000        0.00000       -0.07570 )
           atom      2   Si Mean Z*:       -0.07570
      Ex  (       -0.07570       -0.00000        0.00000 )
      Ey  (       -0.00000       -0.07570       -0.00000 )
      Ez  (        0.00000       -0.00000       -0.07570 )

          Effective charges Sum: Mean:       -0.15140
             -0.15140        0.00000        0.00000
              0.00000       -0.15140       -0.00000
              0.00000       -0.00000       -0.15140

          Effective charges (d Force / dE) in cartesian axis with asr applied: 
           atom      1   Si Mean Z*:       -0.00000
      E*x (        0.00000        0.00000        0.00000 )
      E*y (        0.00000        0.00000        0.00000 )
      E*z (        0.00000        0.00000       -0.00000 )
           atom      2   Si Mean Z*:        0.00000
      E*x (        0.00000       -0.00000        0.00000 )
      E*y (       -0.00000        0.00000       -0.00000 )
      E*z (        0.00000       -0.00000        0.00000 )

     Diagonalizing the dynamical matrix

     q = (    0.000000000   0.000000000   0.000000000 ) 

 **************************************************************************
     freq (    1) =       0.070175 [THz] =       2.340773 [cm-1]
     freq (    2) =       0.070175 [THz] =       2.340773 [cm-1]
     freq (    3) =       0.070175 [THz] =       2.340773 [cm-1]
     freq (    4) =      15.292434 [THz] =     510.100699 [cm-1]
     freq (    5) =      15.292434 [THz] =     510.100699 [cm-1]
     freq (    6) =      15.292434 [THz] =     510.100699 [cm-1]
 **************************************************************************

     Mode symmetry, O_h (m-3m)  point group:

     freq (   1-   3) =          2.3  [cm-1]   --> T_1u G_15  G_4- I  
     freq (   4-   6) =        510.1  [cm-1]   --> T_2g G_25' G_5+ R  

     PHONON       :      2.74s CPU      2.96s WALL

     INITIALIZATION: 
     phq_setup    :      0.00s CPU      0.00s WALL (       1 calls)
     phq_init     :      0.02s CPU      0.02s WALL (       1 calls)

     phq_init     :      0.02s CPU      0.02s WALL (       1 calls)
     init_vloc    :      0.00s CPU      0.00s WALL (       1 calls)
     init_us_1    :      0.00s CPU      0.00s WALL (       1 calls)
     init_us_2    :      0.01s CPU      0.01s WALL (     250 calls)

     DIELECTRIC CONSTANT AND EFFECTIVE CHARGES:
     solve_e      :      1.01s CPU      1.07s WALL (       1 calls)
     dielec       :      0.00s CPU      0.00s WALL (       1 calls)
     zstar_eu     :      0.03s CPU      0.03s WALL (       1 calls)

     DYNAMICAL MATRIX:
     dynmat0      :      0.01s CPU      0.01s WALL (       1 calls)
     dynmat_us    :      0.01s CPU      0.01s WALL (       1 calls)
     d2ionq       :      0.00s CPU      0.00s WALL (       1 calls)
     phqscf       :      1.51s CPU      1.63s WALL (       1 calls)
     dynmatrix    :      0.00s CPU      0.00s WALL (       1 calls)

     phqscf       :      1.51s CPU      1.63s WALL (       1 calls)
     solve_linter :      1.51s CPU      1.62s WALL (       2 calls)
     sth_kernel   :      1.87s CPU      2.00s WALL (      15 calls)
     h_prec       :      0.00s CPU      0.00s WALL (     180 calls)
     apply_dpot_b :      0.11s CPU      0.12s WALL (     360 calls)
     ortho        :      0.01s CPU      0.01s WALL (     480 calls)
     cgsolve      :      1.85s CPU      1.98s WALL (     480 calls)
     incdrhoscf   :      0.12s CPU      0.13s WALL (     450 calls)
                                        0.00s GPU  (     450 calls)
     dv_of_drho   :      0.01s CPU      0.01s WALL (      45 calls)
     mix_pot      :      0.01s CPU      0.01s WALL (      15 calls)
     drhodv       :      0.00s CPU      0.01s WALL (       2 calls)
     psymdvscf    :      0.26s CPU      0.26s WALL (      10 calls)

     dvqpsi_us    :      0.05s CPU      0.05s WALL (     120 calls)
                                        0.00s GPU  (     120 calls)
     dvqpsi_us_on :      0.01s CPU      0.01s WALL (     120 calls)

     add_vuspsi   :      0.05s CPU      0.06s WALL (    5018 calls)


      General routines
     calbec       :      0.17s CPU      0.19s WALL (   10406 calls)
     fft          :      0.12s CPU      0.13s WALL (     139 calls)
     ffts         :      0.00s CPU      0.01s WALL (     132 calls)
     fftw         :      1.26s CPU      1.35s WALL (   43712 calls)
     davcio       :      0.02s CPU      0.02s WALL (    2028 calls)
     write_rec    :      0.01s CPU      0.01s WALL (      17 calls)

      Additional routines
     ch_psi       :      1.73s CPU      1.85s WALL (    5018 calls)
     last         :      0.23s CPU      0.25s WALL (    5018 calls)
     Hesh         :      0.01s CPU      0.01s WALL (    5018 calls)
     ch_psi_all_k :      0.20s CPU      0.22s WALL (    5018 calls)
                                        0.00s GPU  (    5018 calls)
     ch_psi_calbe :      0.09s CPU      0.10s WALL (    5018 calls)
                                        0.00s GPU  (    5018 calls)
     h_psi_bgrp   :      1.46s CPU      1.56s WALL (    5018 calls)
     h_psi        :      1.45s CPU      1.55s WALL (    5018 calls)
     h_psi:pot    :      1.43s CPU      1.54s WALL (    5018 calls)
     h_psi:calbec :      0.10s CPU      0.10s WALL (    5018 calls)
     s_psi_bgrp   :      0.03s CPU      0.03s WALL (   10516 calls)


     PHONON       :      2.74s CPU      2.96s WALL


   This run was terminated on:  23:17:38   8Aug2023            

=------------------------------------------------------------------------------=
   JOB DONE.
=------------------------------------------------------------------------------=
